
                                 *****************
                                 * O   R   C   A *
                                 *****************

                                            #,                                       
                                            ###                                      
                                            ####                                     
                                            #####                                    
                                            ######                                   
                                           ########,                                 
                                     ,,################,,,,,                         
                               ,,#################################,,                 
                          ,,##########################################,,             
                       ,#########################################, ''#####,          
                    ,#############################################,,   '####,        
                  ,##################################################,,,,####,       
                ,###########''''           ''''###############################       
              ,#####''   ,,,,##########,,,,          '''####'''          '####       
            ,##' ,,,,###########################,,,                        '##       
           ' ,,###''''                  '''############,,,                           
         ,,##''                                '''############,,,,        ,,,,,,###''
      ,#''                                            '''#######################'''  
     '                                                          ''''####''''         
             ,#######,   #######,   ,#######,      ##                                
            ,#'     '#,  ##    ##  ,#'     '#,    #''#        ######   ,####,        
            ##       ##  ##   ,#'  ##            #'  '#       #        #'  '#        
            ##       ##  #######   ##           ,######,      #####,   #    #        
            '#,     ,#'  ##    ##  '#,     ,#' ,#      #,         ##   #,  ,#        
             '#######'   ##     ##  '#######'  #'      '#     #####' # '####'        



                  #######################################################
                  #                        -***-                        #
                  #          Department of theory and spectroscopy      #
                  #    Directorship and core code : Frank Neese         #
                  #        Max Planck Institute fuer Kohlenforschung    #
                  #                Kaiser Wilhelm Platz 1               #
                  #                 D-45470 Muelheim/Ruhr               #
                  #                      Germany                        #
                  #                                                     #
                  #                  All rights reserved                #
                  #                        -***-                        #
                  #######################################################


                         Program Version 5.0.3 -  RELEASE  -


 With contributions from (in alphabetic order):
   Daniel Aravena         : Magnetic Suceptibility
   Michael Atanasov       : Ab Initio Ligand Field Theory (pilot matlab implementation)
   Alexander A. Auer      : GIAO ZORA, VPT2 properties, NMR spectrum
   Ute Becker             : Parallelization
   Giovanni Bistoni       : ED, misc. LED, open-shell LED, HFLD
   Martin Brehm           : Molecular dynamics
   Dmytro Bykov           : SCF Hessian
   Vijay G. Chilkuri      : MRCI spin determinant printing, contributions to CSF-ICE
   Dipayan Datta          : RHF DLPNO-CCSD density
   Achintya Kumar Dutta   : EOM-CC, STEOM-CC
   Dmitry Ganyushin       : Spin-Orbit,Spin-Spin,Magnetic field MRCI
   Miquel Garcia          : C-PCM and meta-GGA Hessian, CC/C-PCM, Gaussian charge scheme
   Yang Guo               : DLPNO-NEVPT2, F12-NEVPT2, CIM, IAO-localization
   Andreas Hansen         : Spin unrestricted coupled pair/coupled cluster methods
   Benjamin Helmich-Paris : MC-RPA, TRAH-SCF, COSX integrals
   Lee Huntington         : MR-EOM, pCC
   Robert Izsak           : Overlap fitted RIJCOSX, COSX-SCS-MP3, EOM
   Marcus Kettner         : VPT2
   Christian Kollmar      : KDIIS, OOCD, Brueckner-CCSD(T), CCSD density, CASPT2, CASPT2-K
   Simone Kossmann        : Meta GGA functionals, TD-DFT gradient, OOMP2, MP2 Hessian
   Martin Krupicka        : Initial AUTO-CI
   Lucas Lang             : DCDCAS
   Marvin Lechner         : AUTO-CI (C++ implementation), FIC-MRCC
   Dagmar Lenk            : GEPOL surface, SMD
   Dimitrios Liakos       : Extrapolation schemes; Compound Job, initial MDCI parallelization
   Dimitrios Manganas     : Further ROCIS development; embedding schemes
   Dimitrios Pantazis     : SARC Basis sets
   Anastasios Papadopoulos: AUTO-CI, single reference methods and gradients
   Taras Petrenko         : DFT Hessian,TD-DFT gradient, ASA, ECA, R-Raman, ABS, FL, XAS/XES, NRVS
   Peter Pinski           : DLPNO-MP2, DLPNO-MP2 Gradient
   Christoph Reimann      : Effective Core Potentials
   Marius Retegan         : Local ZFS, SOC
   Christoph Riplinger    : Optimizer, TS searches, QM/MM, DLPNO-CCSD(T), (RO)-DLPNO pert. Triples
   Tobias Risthaus        : Range-separated hybrids, TD-DFT gradient, RPA, STAB
   Michael Roemelt        : Original ROCIS implementation
   Masaaki Saitow         : Open-shell DLPNO-CCSD energy and density
   Barbara Sandhoefer     : DKH picture change effects
   Avijit Sen             : IP-ROCIS
   Kantharuban Sivalingam : CASSCF convergence, NEVPT2, FIC-MRCI
   Bernardo de Souza      : ESD, SOC TD-DFT
   Georgi Stoychev        : AutoAux, RI-MP2 NMR, DLPNO-MP2 response
   Willem Van den Heuvel  : Paramagnetic NMR
   Boris Wezisla          : Elementary symmetry handling
   Frank Wennmohs         : Technical directorship


 We gratefully acknowledge several colleagues who have allowed us to
 interface, adapt or use parts of their codes:
   Stefan Grimme, W. Hujo, H. Kruse, P. Pracht,  : VdW corrections, initial TS optimization,
                  C. Bannwarth, S. Ehlert          DFT functionals, gCP, sTDA/sTD-DF
   Ed Valeev, F. Pavosevic, A. Kumar             : LibInt (2-el integral package), F12 methods
   Garnet Chan, S. Sharma, J. Yang, R. Olivares  : DMRG
   Ulf Ekstrom                                   : XCFun DFT Library
   Mihaly Kallay                                 : mrcc  (arbitrary order and MRCC methods)
   Jiri Pittner, Ondrej Demel                    : Mk-CCSD
   Frank Weinhold                                : gennbo (NPA and NBO analysis)
   Christopher J. Cramer and Donald G. Truhlar   : smd solvation model
   Lars Goerigk                                  : TD-DFT with DH, B97 family of functionals
   V. Asgeirsson, H. Jonsson                     : NEB implementation
   FAccTs GmbH                                   : IRC, NEB, NEB-TS, DLPNO-Multilevel, CI-OPT
                                                   MM, QMMM, 2- and 3-layer-ONIOM, Crystal-QMMM,
                                                   LR-CPCM, SF, NACMEs, symmetry and pop. for TD-DFT,
                                                   nearIR, NL-DFT gradient (VV10), updates on ESD,
                                                   ML-optimized integration grids
   S Lehtola, MJT Oliveira, MAL Marques          : LibXC Library
   Liviu Ungur et al                             : ANISO software


 Your calculation uses the libint2 library for the computation of 2-el integrals
 For citations please refer to: http://libint.valeyev.net

 Your ORCA version has been built with support for libXC version: 5.1.0
 For citations please refer to: https://tddft.org/programs/libxc/

 This ORCA versions uses:
   CBLAS   interface :  Fast vector & matrix operations
   LAPACKE interface :  Fast linear algebra routines
   SCALAPACK package :  Parallel linear algebra routines
   Shared memory     :  Shared parallel matrices
   BLAS/LAPACK       :  OpenBLAS 0.3.15  USE64BITINT DYNAMIC_ARCH NO_AFFINITY SkylakeX SINGLE_THREADED
        Core in use  :  SkylakeX
   Copyright (c) 2011-2014, The OpenBLAS Project




***************************************
The coordinates will be read from file: /home/sk77/PycharmProjects/omg_database_publication/run_calculation/calculation_results/pareto_greedy/0/reaction_10005258/opt_n_1/conformer_3/geometry.xtbopt.xyz
***************************************


Your calculation utilizes the atom-pairwise dispersion correction
with the Becke-Johnson damping scheme (D3BJ)
Cite in your paper:
S.Grimme, S.Ehrlich, L.Goerigk, J Comput Chem, (2011), 32, 1456–1465 
S.Grimme, J.Antony, S.Ehrlich and H.Krieg, J.Chem.Phys., 132, (2010), 154104 
   

================================================================================

----- Orbital basis set information -----
Your calculation utilizes the basis: def2-SVP
   F. Weigend and R. Ahlrichs, Phys. Chem. Chem. Phys. 7, 3297 (2005).

----- AuxJ basis set information -----
Your calculation utilizes the auxiliary basis: def2/J
   F. Weigend, Phys. Chem. Chem. Phys. 8, 1057 (2006).

================================================================================
                                        WARNINGS
                       Please study these warnings very carefully!
================================================================================

INFO   : Checking CIS options ...

WARNING: CIS/ROCIS methods need fully converged wavefunctions
  ===> : Setting SCFConvForced true
         You can overwrite this default with %scf ConvForced false 


INFO   : the flag for use of the SHARK integral package has been found!



***************************************
The coordinates will be read from file: /home/sk77/PycharmProjects/omg_database_publication/run_calculation/calculation_results/pareto_greedy/0/reaction_10005258/opt_n_1/conformer_3/geometry.xtbopt.xyz
***************************************


Your calculation utilizes the atom-pairwise dispersion correction
with the Becke-Johnson damping scheme (D3BJ)
Cite in your paper:
S.Grimme, S.Ehrlich, L.Goerigk, J Comput Chem, (2011), 32, 1456–1465 
S.Grimme, J.Antony, S.Ehrlich and H.Krieg, J.Chem.Phys., 132, (2010), 154104 
   

================================================================================

----- Orbital basis set information -----
Your calculation utilizes the basis: def2-SVP
   F. Weigend and R. Ahlrichs, Phys. Chem. Chem. Phys. 7, 3297 (2005).

----- AuxJ basis set information -----
Your calculation utilizes the auxiliary basis: def2/J
   F. Weigend, Phys. Chem. Chem. Phys. 8, 1057 (2006).

================================================================================
                                        WARNINGS
                       Please study these warnings very carefully!
================================================================================


INFO   : the flag for use of the SHARK integral package has been found!

================================================================================
                                       INPUT FILE
================================================================================
NAME = /home/sk77/PycharmProjects/omg_database_publication/run_calculation/calculation_results/pareto_greedy/0/reaction_10005258/opt_n_1/conformer_3/property.inp
|  1> ! revPBE def2-SVP def2/J CPCMC(Toluene) Hirshfeld CHELPG RIJONX D3 Energy
|  2> %pal
|  3> nprocs 1
|  4> end
|  5> %maxcore 3000
|  6> %elprop
|  7> Polar 1
|  8> Quadrupole True
|  9> end
| 10> %TDDFT
| 11> NRoots 15
| 12> Triplets True
| 13> end
| 14> * xyzfile 0 1 /home/sk77/PycharmProjects/omg_database_publication/run_calculation/calculation_results/pareto_greedy/0/reaction_10005258/opt_n_1/conformer_3/geometry.xtbopt.xyz
| 15> 
| 16> # for cosmo solvent -> Flory Huggins
| 17> $new_job
| 18> ! revPBE def2-SVP def2/J CPCMC Hirshfeld CHELPG RIJONX D3 Energy
| 19> %base "/home/sk77/PycharmProjects/omg_database_publication/run_calculation/calculation_results/pareto_greedy/0/reaction_10005258/opt_n_1/conformer_3/property_cosmo"
| 20> %pal
| 21> nprocs 1
| 22> end
| 23> %maxcore 3000
| 24> * xyzfile 0 1 /home/sk77/PycharmProjects/omg_database_publication/run_calculation/calculation_results/pareto_greedy/0/reaction_10005258/opt_n_1/conformer_3/geometry.xtbopt.xyz
| 25> 
| 26>                          ****END OF INPUT****
================================================================================


                 $$$$$$$$$$$$$$$$$$$$$$$$$$$$$$$$$$$$$$$$$$$$$$ 
                 $ THERE ARE  2 JOBS TO BE PROCESSED THIS RUN $
                 $$$$$$$$$$$$$$$$$$$$$$$$$$$$$$$$$$$$$$$$$$$$$$ 




                 $$$$$$$$$$$$$$$$  JOB NUMBER  1 $$$$$$$$$$$$$$


                       ****************************
                       * Single Point Calculation *
                       ****************************

---------------------------------
CARTESIAN COORDINATES (ANGSTROEM)
---------------------------------
  H      2.687670   -2.483568   -2.026780
  C      2.989321   -2.681156   -1.012987
  C      2.398615   -1.945199    0.007584
  O      1.502450   -0.966452   -0.385435
  C      0.351607   -0.747268    0.278146
  O     -0.032084   -1.424840    1.204717
  C     -0.388536    0.410720   -0.276668
  C      0.100311    1.134308   -1.359851
  H      1.024755    0.829876   -1.817239
  C     -0.611538    2.239653   -1.819847
  C     -0.159380    3.078415   -2.967016
  O     -0.827286    4.022162   -3.351626
  C      1.138920    2.706743   -3.620333
  H      1.942417    2.741670   -2.889534
  H      1.074537    1.696309   -4.014733
  H      1.349330    3.401078   -4.428907
  C     -1.803814    2.591678   -1.194166
  H     -2.332377    3.457772   -1.565559
  C     -2.314655    1.856626   -0.124515
  N     -3.497727    2.298922    0.450651
  H     -3.756684    3.237826    0.169935
  C     -4.437748    1.627037    1.162122
  S     -4.446614   -0.034906    1.406246
  N     -5.443620    2.350263    1.659421
  H     -6.151458    1.825341    2.150974
  C     -5.633241    3.787727    1.568101
  H     -4.738449    4.295835    1.941725
  H     -5.796842    4.073211    0.522415
  C     -6.840950    4.195065    2.399147
  H     -7.736438    3.698327    2.035118
  H     -6.691147    3.929255    3.442011
  H     -6.987950    5.268442    2.331877
  C     -1.586531    0.766205    0.340265
  H     -1.929553    0.182076    1.178456
  C      2.742032   -2.142340    1.333454
  H      2.290471   -1.580168    2.130932
  C      3.685227   -3.119366    1.625315
  O      3.966141   -3.259953    3.002889
  C      4.782363   -4.192491    3.427926
  F      6.054135   -4.070631    2.997272
  F      4.839768   -4.146959    4.759473
  F      4.423169   -5.450541    3.109862
  C      4.288333   -3.867889    0.640914
  H      5.023051   -4.628351    0.845859
  C      3.941368   -3.644389   -0.700377
  O      4.583138   -4.412247   -1.599562
  C      4.285480   -4.244960   -2.978802
  H      3.237485   -4.471953   -3.182774
  H      4.519808   -3.231077   -3.307939
  H      4.922738   -4.955845   -3.498169

----------------------------
CARTESIAN COORDINATES (A.U.)
----------------------------
  NO LB      ZA    FRAG     MASS         X           Y           Z
   0 H     1.0000    0     1.008    5.078960   -4.693263   -3.830060
   1 C     6.0000    0    12.011    5.648997   -5.066650   -1.914268
   2 C     6.0000    0    12.011    4.532726   -3.675894    0.014332
   3 O     8.0000    0    15.999    2.839219   -1.826330   -0.728366
   4 C     6.0000    0    12.011    0.664441   -1.412132    0.525620
   5 O     8.0000    0    15.999   -0.060630   -2.692557    2.276586
   6 C     6.0000    0    12.011   -0.734228    0.776149   -0.522826
   7 C     6.0000    0    12.011    0.189560    2.143531   -2.569747
   8 H     1.0000    0     1.008    1.936506    1.568239   -3.434083
   9 C     6.0000    0    12.011   -1.155639    4.232330   -3.439012
  10 C     6.0000    0    12.011   -0.301185    5.817362   -5.606849
  11 O     8.0000    0    15.999   -1.563344    7.600784   -6.333656
  12 C     6.0000    0    12.011    2.152246    5.115003   -6.841438
  13 H     1.0000    0     1.008    3.670637    5.181005   -5.460428
  14 H     1.0000    0     1.008    2.030582    3.205559   -7.586745
  15 H     1.0000    0     1.008    2.549864    6.427105   -8.369422
  16 C     6.0000    0    12.011   -3.408715    4.897561   -2.256648
  17 H     1.0000    0     1.008   -4.407553    6.534241   -2.958479
  18 C     6.0000    0    12.011   -4.374064    3.508514   -0.235299
  19 N     7.0000    0    14.007   -6.609745    4.344332    0.851607
  20 H     1.0000    0     1.008   -7.099105    6.118604    0.321131
  21 C     6.0000    0    12.011   -8.386129    3.074654    2.196093
  22 S    16.0000    0    32.060   -8.402882   -0.065963    2.657421
  23 N     7.0000    0    14.007  -10.286950    4.441353    3.135852
  24 H     1.0000    0     1.008  -11.624571    3.449394    4.064752
  25 C     6.0000    0    12.011  -10.645283    7.157766    2.963281
  26 H     1.0000    0     1.008   -8.954371    8.117952    3.669329
  27 H     1.0000    0     1.008  -10.954444    7.697253    0.987221
  28 C     6.0000    0    12.011  -12.927523    7.927525    4.533732
  29 H     1.0000    0     1.008  -14.619748    6.988826    3.845815
  30 H     1.0000    0     1.008  -12.644436    7.425215    6.504459
  31 H     1.0000    0     1.008  -13.205312    9.955912    4.406609
  32 C     6.0000    0    12.011   -2.998108    1.447917    0.643008
  33 H     1.0000    0     1.008   -3.646326    0.344074    2.226960
  34 C     6.0000    0    12.011    5.181690   -4.048437    2.519862
  35 H     1.0000    0     1.008    4.328364   -2.986085    4.026878
  36 C     6.0000    0    12.011    6.964070   -5.894747    3.071401
  37 O     8.0000    0    15.999    7.494920   -6.160418    5.674638
  38 C     6.0000    0    12.011    9.037357   -7.922660    6.477842
  39 F     9.0000    0    18.998   11.440657   -7.692377    5.664022
  40 F     9.0000    0    18.998    9.145836   -7.836616    8.994100
  41 F     9.0000    0    18.998    8.358579  -10.300030    5.876787
  42 C     6.0000    0    12.011    8.103774   -7.309252    1.211152
  43 H     1.0000    0     1.008    9.492191   -8.746316    1.598443
  44 C     6.0000    0    12.011    7.448107   -6.886898   -1.323520
  45 O     8.0000    0    15.999    8.660876   -8.337938   -3.022734
  46 C     6.0000    0    12.011    8.098384   -8.021812   -5.629119
  47 H     1.0000    0     1.008    6.117960   -8.450766   -6.014571
  48 H     1.0000    0     1.008    8.541199   -6.105850   -6.251098
  49 H     1.0000    0     1.008    9.302626   -9.365190   -6.610582

--------------------------------
INTERNAL COORDINATES (ANGSTROEM)
--------------------------------
 H      0   0   0     0.000000000000     0.00000000     0.00000000
 C      1   0   0     1.076016457847     0.00000000     0.00000000
 C      2   1   0     1.390010527715   118.38547842     0.00000000
 O      3   2   1     1.384024044693   116.17374360   357.21312530
 C      4   3   2     1.346409987075   121.91253946   139.36455881
 O      5   4   3     1.210312441620   123.85855140   355.31028142
 C      5   4   3     1.482082309586   111.68800897   175.99963190
 C      7   5   4     1.391343771391   121.48751636     0.39873837
 H      8   7   5     1.075396901875   119.07308606     1.45924170
 C      8   7   5     1.392878697936   119.35689648   181.93560860
 C     10   8   7     1.491297285384   123.05345964   179.58052303
 O     11  10   8     1.218474314537   120.81310388   178.61238013
 C     11  10   8     1.500182071562   117.26132168   358.81695334
 H     13  11  10     1.086690191577   109.81998140   300.97233552
 H     13  11  10     1.086588115136   109.70516895    60.17521554
 H     13  11  10     1.086353905121   109.47581969   180.49603493
 C     10   8   7     1.391732937961   119.34557073   359.44903756
 H     17  10   8     1.080476498105   117.85965607   179.53048661
 C     17  10   8     1.394781436140   121.68405202   359.28849518
 N     19  17  10     1.387839964944   117.52187800   178.85524133
 H     20  19  17     1.013607970305   113.46671322   346.49454403
 C     20  19  17     1.356930931463   130.54451480   156.15743718
 S     22  20  19     1.679799998034   124.73226076   353.86890542
 N     22  20  19     1.334967898142   116.68254706   176.15231770
 H     24  22  20     1.009060137024   115.35309392   177.49078066
 C     24  22  20     1.452789812737   127.65969021   357.78288891
 H     26  24  22     1.094724866694   109.33606602   306.04758785
 H     26  24  22     1.096232357893   109.70121184    65.60993841
 C     26  24  22     1.521553341547   109.52123111   185.74426501
 H     29  26  24     1.086813591823   110.40766882   299.88599402
 H     29  26  24     1.086582371458   110.44374282    60.33553303
 H     29  26  24     1.085481863760   109.77752585   180.13821851
 C     19  17  10     1.391115710666   118.52959507     1.64160355
 H     33  19  17     1.077698962874   121.20576769   178.57873115
 C      3   2   1     1.383737633111   121.50767317   180.26328035
 H     35   3   2     1.075135841184   122.14032515   180.10903808
 C     35   3   2     1.389020739354   118.03876136   358.93717728
 O     37  35   3     1.412935659604   114.19553303   180.52541958
 C     38  37  35     1.310154087680   120.72925024   176.29093809
 F     39  38  37     1.348227063041   114.81609560    63.56458105
 F     39  38  37     1.333560796327   109.05299128   182.28429056
 F     39  38  37     1.346430473894   114.97480098   301.41332936
 C     37  35   3     1.375888399599   122.00406816     0.94874485
 H     43  37  35     1.077086957656   123.15961201   179.87103121
 C      2   1   3     1.389942042890   122.08513049   179.85313506
 O     45   2   1     1.345365204780   124.88604141     0.42881791
 C     46  45   2     1.420875575822   118.79291138     0.09527449
 H     47  46  45     1.091524301491   110.98014101   298.21511627
 H     47  46  45     1.091421024550   110.92369770    60.88967594
 H     47  46  45     1.086829353517   105.30924335   179.53715309

---------------------------
INTERNAL COORDINATES (A.U.)
---------------------------
 H      0   0   0     0.000000000000     0.00000000     0.00000000
 C      1   0   0     2.033376420923     0.00000000     0.00000000
 C      2   1   0     2.626739220648   118.38547842     0.00000000
 O      3   2   1     2.615426407231   116.17374360   357.21312530
 C      4   3   2     2.544346139548   121.91253946   139.36455881
 O      5   4   3     2.287159051139   123.85855140   355.31028142
 C      5   4   3     2.800729673048   111.68800897   175.99963190
 C      7   5   4     2.629258686066   121.48751636     0.39873837
 H      8   7   5     2.032205629810   119.07308606     1.45924170
 C      8   7   5     2.632159276871   119.35689648   181.93560860
 C     10   8   7     2.818143453635   123.05345964   179.58052303
 O     11  10   8     2.302582755692   120.81310388   178.61238013
 C     11  10   8     2.834933266271   117.26132168   358.81695334
 H     13  11  10     2.053546854499   109.81998140   300.97233552
 H     13  11  10     2.053353957982   109.70516895    60.17521554
 H     13  11  10     2.052911365195   109.47581969   180.49603493
 C     10   8   7     2.629994104303   119.34557073   359.44903756
 H     17  10   8     2.041804675557   117.85965607   179.53048661
 C     17  10   8     2.635754930982   121.68405202   359.28849518
 N     19  17  10     2.622637451454   117.52187800   178.85524133
 H     20  19  17     1.915441471037   113.46671322   346.49454403
 C     20  19  17     2.564227843113   130.54451480   156.15743718
 S     22  20  19     3.174361956046   124.73226076   353.86890542
 N     22  20  19     2.522723725066   116.68254706   176.15231770
 H     24  22  20     1.906847311632   115.35309392   177.49078066
 C     24  22  20     2.745374876224   127.65969021   357.78288891
 H     26  24  22     2.068730190045   109.33606602   306.04758785
 H     26  24  22     2.071578935560   109.70121184    65.60993841
 C     26  24  22     2.875319113677   109.52123111   185.74426501
 H     29  26  24     2.053780047170   110.40766882   299.88599402
 H     29  26  24     2.053343104002   110.44374282    60.33553303
 H     29  26  24     2.051263445844   109.77752585   180.13821851
 C     19  17  10     2.628827713754   118.52959507     1.64160355
 H     33  19  17     2.036555894644   121.20576769   178.57873115
 C      3   2   1     2.614885167780   121.50767317   180.26328035
 H     35   3   2     2.031712296601   122.14032515   180.10903808
 C     35   3   2     2.624868791716   118.03876136   358.93717728
 O     37  35   3     2.670061441504   114.19553303   180.52541958
 C     38  37  35     2.475832418954   120.72925024   176.29093809
 F     39  38  37     2.547779915488   114.81609560    63.56458105
 F     39  38  37     2.520064687991   109.05299128   182.28429056
 F     39  38  37     2.544384854026   114.97480098   301.41332936
 C     37  35   3     2.600052266081   122.00406816     0.94874485
 H     43  37  35     2.035399372387   123.15961201   179.87103121
 C      2   1   3     2.626609803086   122.08513049   179.85313506
 O     45   2   1     2.542371787142   124.88604141     0.42881791
 C     46  45   2     2.685065708682   118.79291138     0.09527449
 H     47  46  45     2.062681998338   110.98014101   298.21511627
 H     47  46  45     2.062486833204   110.92369770    60.88967594
 H     47  46  45     2.053809832454   105.30924335   179.53715309

---------------------
BASIS SET INFORMATION
---------------------
There are 6 groups of distinct atoms

 Group   1 Type H   : 4s1p contracted to 2s1p pattern {31/1}
 Group   2 Type C   : 7s4p1d contracted to 3s2p1d pattern {511/31/1}
 Group   3 Type O   : 7s4p1d contracted to 3s2p1d pattern {511/31/1}
 Group   4 Type N   : 7s4p1d contracted to 3s2p1d pattern {511/31/1}
 Group   5 Type S   : 10s7p1d contracted to 4s3p1d pattern {5311/511/1}
 Group   6 Type F   : 7s4p1d contracted to 3s2p1d pattern {511/31/1}

Atom   0H    basis set group =>   1
Atom   1C    basis set group =>   2
Atom   2C    basis set group =>   2
Atom   3O    basis set group =>   3
Atom   4C    basis set group =>   2
Atom   5O    basis set group =>   3
Atom   6C    basis set group =>   2
Atom   7C    basis set group =>   2
Atom   8H    basis set group =>   1
Atom   9C    basis set group =>   2
Atom  10C    basis set group =>   2
Atom  11O    basis set group =>   3
Atom  12C    basis set group =>   2
Atom  13H    basis set group =>   1
Atom  14H    basis set group =>   1
Atom  15H    basis set group =>   1
Atom  16C    basis set group =>   2
Atom  17H    basis set group =>   1
Atom  18C    basis set group =>   2
Atom  19N    basis set group =>   4
Atom  20H    basis set group =>   1
Atom  21C    basis set group =>   2
Atom  22S    basis set group =>   5
Atom  23N    basis set group =>   4
Atom  24H    basis set group =>   1
Atom  25C    basis set group =>   2
Atom  26H    basis set group =>   1
Atom  27H    basis set group =>   1
Atom  28C    basis set group =>   2
Atom  29H    basis set group =>   1
Atom  30H    basis set group =>   1
Atom  31H    basis set group =>   1
Atom  32C    basis set group =>   2
Atom  33H    basis set group =>   1
Atom  34C    basis set group =>   2
Atom  35H    basis set group =>   1
Atom  36C    basis set group =>   2
Atom  37O    basis set group =>   3
Atom  38C    basis set group =>   2
Atom  39F    basis set group =>   6
Atom  40F    basis set group =>   6
Atom  41F    basis set group =>   6
Atom  42C    basis set group =>   2
Atom  43H    basis set group =>   1
Atom  44C    basis set group =>   2
Atom  45O    basis set group =>   3
Atom  46C    basis set group =>   2
Atom  47H    basis set group =>   1
Atom  48H    basis set group =>   1
Atom  49H    basis set group =>   1
---------------------------------
AUXILIARY/J BASIS SET INFORMATION
---------------------------------
There are 6 groups of distinct atoms

 Group   1 Type H   : 5s2p1d contracted to 3s1p1d pattern {311/2/1}
 Group   2 Type C   : 12s5p4d2f1g contracted to 6s4p3d1f1g pattern {711111/2111/211/2/1}
 Group   3 Type O   : 12s5p4d2f1g contracted to 6s4p3d1f1g pattern {711111/2111/211/2/1}
 Group   4 Type N   : 12s5p4d2f1g contracted to 6s4p3d1f1g pattern {711111/2111/211/2/1}
 Group   5 Type S   : 14s5p5d2f1g contracted to 8s4p3d1f1g pattern {71111111/2111/311/2/1}
 Group   6 Type F   : 12s5p4d2f1g contracted to 6s4p3d1f1g pattern {711111/2111/211/2/1}

Atom   0H    basis set group =>   1
Atom   1C    basis set group =>   2
Atom   2C    basis set group =>   2
Atom   3O    basis set group =>   3
Atom   4C    basis set group =>   2
Atom   5O    basis set group =>   3
Atom   6C    basis set group =>   2
Atom   7C    basis set group =>   2
Atom   8H    basis set group =>   1
Atom   9C    basis set group =>   2
Atom  10C    basis set group =>   2
Atom  11O    basis set group =>   3
Atom  12C    basis set group =>   2
Atom  13H    basis set group =>   1
Atom  14H    basis set group =>   1
Atom  15H    basis set group =>   1
Atom  16C    basis set group =>   2
Atom  17H    basis set group =>   1
Atom  18C    basis set group =>   2
Atom  19N    basis set group =>   4
Atom  20H    basis set group =>   1
Atom  21C    basis set group =>   2
Atom  22S    basis set group =>   5
Atom  23N    basis set group =>   4
Atom  24H    basis set group =>   1
Atom  25C    basis set group =>   2
Atom  26H    basis set group =>   1
Atom  27H    basis set group =>   1
Atom  28C    basis set group =>   2
Atom  29H    basis set group =>   1
Atom  30H    basis set group =>   1
Atom  31H    basis set group =>   1
Atom  32C    basis set group =>   2
Atom  33H    basis set group =>   1
Atom  34C    basis set group =>   2
Atom  35H    basis set group =>   1
Atom  36C    basis set group =>   2
Atom  37O    basis set group =>   3
Atom  38C    basis set group =>   2
Atom  39F    basis set group =>   6
Atom  40F    basis set group =>   6
Atom  41F    basis set group =>   6
Atom  42C    basis set group =>   2
Atom  43H    basis set group =>   1
Atom  44C    basis set group =>   2
Atom  45O    basis set group =>   3
Atom  46C    basis set group =>   2
Atom  47H    basis set group =>   1
Atom  48H    basis set group =>   1
Atom  49H    basis set group =>   1
------------------------------------------------------------------------------
                           ORCA GTO INTEGRAL CALCULATION
                           -- RI-GTO INTEGRALS CHOSEN --
------------------------------------------------------------------------------
------------------------------------------------------------------------------
                   ___                                                        
                  /   \      - P O W E R E D   B Y -                         
                 /     \                                                     
                 |  |  |   _    _      __       _____    __    __             
                 |  |  |  | |  | |    /  \     |  _  \  |  |  /  |          
                  \  \/   | |  | |   /    \    | | | |  |  | /  /          
                 / \  \   | |__| |  /  /\  \   | |_| |  |  |/  /          
                |  |  |   |  __  | /  /__\  \  |    /   |      \           
                |  |  |   | |  | | |   __   |  |    \   |  |\   \          
                \     /   | |  | | |  |  |  |  | |\  \  |  | \   \       
                 \___/    |_|  |_| |__|  |__|  |_| \__\ |__|  \__/        
                                                                              
                      - O R C A' S   B I G   F R I E N D -                    
                                      &                                       
                       - I N T E G R A L  F E E D E R -                       
                                                                              
 v1 FN, 2020, v2 2021                                                         
------------------------------------------------------------------------------


Reading SHARK input file /home/sk77/PycharmProjects/omg_database_publication/run_calculation/calculation_results/pareto_greedy/0/reaction_10005258/opt_n_1/conformer_3/property.SHARKINP.tmp ... ok
----------------------
SHARK INTEGRAL PACKAGE
----------------------

Number of atoms                             ...     50
Number of basis functions                   ...    533
Number of shells                            ...    245
Maximum angular momentum                    ...      2
Integral batch strategy                     ... SHARK/LIBINT Hybrid
RI-J (if used) integral strategy            ... SPLIT-RIJ (Revised 2003 algorithm where possible)
Printlevel                                  ...      1
Contraction scheme used                     ... SEGMENTED contraction
Coulomb Range Separation                    ... NOT USED
Exchange Range Separation                   ... NOT USED
Finite Nucleus Model                        ... NOT USED
Auxiliary Coulomb fitting basis             ... AVAILABLE
   # of basis functions in Aux-J            ...   1730
   # of shells in Aux-J                     ...    562
   Maximum angular momentum in Aux-J        ...      4
Auxiliary J/K fitting basis                 ... NOT available
Auxiliary Correlation fitting basis         ... NOT available
Auxiliary 'external' fitting basis          ... NOT available
Integral threshold                          ...     1.000000e-10
Primitive cut-off                           ...     1.000000e-11
Primitive pair pre-selection threshold      ...     1.000000e-11

Calculating pre-screening integrals         ... done (  0.1 sec) Dimension = 245
Organizing shell pair data                  ... done (  1.4 sec)
Shell pair information
Total number of shell pairs                 ...     30135
Shell pairs after pre-screening             ...     14905
Total number of primitive shell pairs       ...    112571
Primitive shell pairs kept                  ...     34572
          la=0 lb=0:   4464 shell pairs
          la=1 lb=0:   5540 shell pairs
          la=1 lb=1:   1771 shell pairs
          la=2 lb=0:   1806 shell pairs
          la=2 lb=1:   1138 shell pairs
          la=2 lb=2:    186 shell pairs

Calculating one electron integrals          ... done (  0.1 sec)
Calculating RI/J V-Matrix + Cholesky decomp.... done (  2.0 sec)
Calculating Nuclear repulsion               ... done (  0.0 sec) ENN=   3084.300322115344 Eh

SHARK setup successfully completed in   7.6 seconds

Maximum memory used throughout the entire GTOINT-calculation: 96.7 MB
-------------------------------------------------------------------------------
                                 ORCA SCF
-------------------------------------------------------------------------------

------------
SCF SETTINGS
------------
Hamiltonian:
 Density Functional     Method          .... DFT(GTOs)
 Exchange Functional    Exchange        .... PBE
   PBE kappa parameter   XKappa         ....  1.245000
   PBE mue parameter    XMuePBE         ....  0.219520
 Correlation Functional Correlation     .... PBE
   PBE beta parameter  CBetaPBE         ....  0.066725
 LDA part of GGA corr.  LDAOpt          .... PW91-LDA
 Gradients option       PostSCFGGA      .... off
   Density functional embedding theory  .... OFF
   NL short-range parameter             ....  3.700000
 RI-approximation to the Coulomb term is turned on
   Number of AuxJ basis functions       .... 1730


General Settings:
 Integral files         IntName         .... /home/sk77/PycharmProjects/omg_database_publication/run_calculation/calculation_results/pareto_greedy/0/reaction_10005258/opt_n_1/conformer_3/property
 Hartree-Fock type      HFTyp           .... RHF
 Total Charge           Charge          ....    0
 Multiplicity           Mult            ....    1
 Number of Electrons    NEL             ....  236
 Basis Dimension        Dim             ....  533
 Nuclear Repulsion      ENuc            ....   3084.3003221153 Eh

Convergence Acceleration:
 DIIS                   CNVDIIS         .... on
   Start iteration      DIISMaxIt       ....    12
   Startup error        DIISStart       ....  0.200000
   # of expansion vecs  DIISMaxEq       ....     5
   Bias factor          DIISBfac        ....   1.050
   Max. coefficient     DIISMaxC        ....  10.000
 Trust-Rad. Augm. Hess. CNVTRAH         .... auto
   Auto Start mean grad. ratio tolernc. ....  1.125000
   Auto Start start iteration           ....    20
   Auto Start num. interpolation iter.  ....    10
   Max. Number of Micro iterations      ....    16
   Max. Number of Macro iterations      .... Maxiter - #DIIS iter
   Number of Davidson start vectors     ....     2
   Converg. threshold I  (grad. norm)   ....   5.000e-05
   Converg. threshold II (energy diff.) ....   1.000e-06
   Grad. Scal. Fac. for Micro threshold ....   0.100
   Minimum threshold for Micro iter.    ....   0.010
   NR start threshold (gradient norm)   ....   0.001
   Initial trust radius                 ....   0.400
   Minimum AH scaling param. (alpha)    ....   1.000
   Maximum AH scaling param. (alpha)    .... 1000.000
   Orbital update algorithm             .... Taylor
   White noise on init. David. guess    .... on
   Maximum white noise                  ....   0.010
   Quad. conv. algorithm                .... NR
   COSX micro iterations for RIJONX calc.... off
 SOSCF                  CNVSOSCF        .... on
   Start iteration      SOSCFMaxIt      ....   150
   Startup grad/error   SOSCFStart      ....  0.003300
 Level Shifting         CNVShift        .... on
   Level shift para.    LevelShift      ....    0.2500
   Turn off err/grad.   ShiftErr        ....    0.0010
 Zerner damping         CNVZerner       .... off
 Static damping         CNVDamp         .... on
   Fraction old density DampFac         ....    0.7000
   Max. Damping (<1)    DampMax         ....    0.9800
   Min. Damping (>=0)   DampMin         ....    0.0000
   Turn off err/grad.   DampErr         ....    0.1000
 Fernandez-Rico         CNVRico         .... off

SCF Procedure:
 Maximum # iterations   MaxIter         ....   125
 SCF integral mode      SCFMode         .... Direct
   Integral package                     .... SHARK and LIBINT hybrid scheme
 Reset frequency        DirectResetFreq ....    20
 Integral Threshold     Thresh          ....  1.000e-10 Eh
 Primitive CutOff       TCut            ....  1.000e-11 Eh

Convergence Tolerance:
 Convergence Check Mode ConvCheckMode   .... Total+1el-Energy
 Convergence forced     ConvForced      .... 1
 Energy Change          TolE            ....  1.000e-06 Eh
 1-El. energy change                    ....  1.000e-03 Eh
 Orbital Gradient       TolG            ....  5.000e-05
 Orbital Rotation angle TolX            ....  5.000e-05
 DIIS Error             TolErr          ....  1.000e-06


Diagonalization of the overlap matrix:
Smallest eigenvalue                        ... 2.175e-04
Time for diagonalization                   ...    0.051 sec
Threshold for overlap eigenvalues          ... 1.000e-08
Number of eigenvalues below threshold      ... 0
Time for construction of square roots      ...    0.346 sec
Total time needed                          ...    0.399 sec

Time for model grid setup =    2.601 sec

------------------------------
INITIAL GUESS: MODEL POTENTIAL
------------------------------
Loading Hartree-Fock densities                     ... done
Calculating cut-offs                               ... done
Initializing the effective Hamiltonian             ... done
Setting up the integral package (SHARK)            ... done
Starting the Coulomb interaction                   ... done (   2.6 sec)
Reading the grid                                   ... done
Mapping shells                                     ... done
Starting the XC term evaluation                    ... done (   1.0 sec)
  promolecular density results
     # of electrons  =    235.974593272
     EX              =   -218.172233977
     EC              =     -8.114941894
     EX+EC           =   -226.287175872
Transforming the Hamiltonian                       ... done (   0.0 sec)
Diagonalizing the Hamiltonian                      ... done (   0.0 sec)
Back transforming the eigenvectors                 ... done (   0.0 sec)
Now organizing SCF variables                       ... done
                      ------------------
                      INITIAL GUESS DONE (   6.7 sec)
                      ------------------
-------------------
DFT GRID GENERATION
-------------------

General Integration Accuracy     IntAcc      ... 4.388
Radial Grid Type                 RadialGrid  ... OptM3 with GC (2021)
Angular Grid (max. ang.)         AngularGrid ... 4 (Lebedev-302)
Angular grid pruning method      GridPruning ... 4 (adaptive)
Weight generation scheme         WeightScheme... Becke
Basis function cutoff            BFCut       ... 1.0000e-10
Integration weight cutoff        WCut        ... 1.0000e-14
Angular grids for H and He will be reduced by one unit
Partially contracted basis set               ... off
Rotationally invariant grid construction     ... off

Total number of grid points                  ...   248162
Total number of batches                      ...     3901
Average number of points per batch           ...       63
Average number of grid points per atom       ...     4963
Time for grid setup =    6.116 sec


--------------------
CPCM SOLVATION MODEL
--------------------
CPCM parameters:
  Epsilon                                         ...       2.4000
  Refrac                                          ...       1.4970
  Rsolv                                           ...       1.3000
  Surface type                                    ... GAUSSIAN VDW
  Epsilon function type                           ...        COSMO
Radii:
 Radius for H  used is    2.4944 Bohr (=   1.3200 Ang.)
 Radius for C  used is    3.8550 Bohr (=   2.0400 Ang.)
 Radius for O  used is    3.4469 Bohr (=   1.8240 Ang.)
 Radius for N  used is    3.5149 Bohr (=   1.8600 Ang.)
 Radius for S  used is    4.0818 Bohr (=   2.1600 Ang.)
 Radius for F  used is    3.3335 Bohr (=   1.7640 Ang.)
Calculating surface                               ...        done! (  0.0s)
GEPOL surface points                              ...         2643
GEPOL Volume                                      ...    3286.5344
GEPOL Surface-area                                ...    1700.0904
Calculating surface distance matrix               ...        done! (  0.1s)
Performing Cholesky decomposition & store         ...        done! (  2.4s)
Overall time for CPCM initialization              ...                 2.5s
--------------
SCF ITERATIONS
--------------
ITER       Energy         Delta-E        Max-DP      RMS-DP      [F,P]     Damp
               ***  Starting incremental Fock matrix formation  ***
  0  -1954.5760993721   0.000000000000 0.12580666  0.00152928  0.2340441 0.7000
  1  -1954.8634986175  -0.287399245387 0.07782974  0.00095714  0.0719118 0.7000
                               ***Turning on DIIS***
  2  -1954.9554981961  -0.091999578605 0.09099546  0.00143398  0.0267936 0.0000
  3  -1955.1210078801  -0.165509683938 0.04533850  0.00063187  0.0441627 0.0000
  4  -1955.1518836407  -0.030875760678 0.01681016  0.00024342  0.0271176 0.0000
  5  -1955.1560270603  -0.004143419589 0.00554000  0.00008485  0.0056977 0.0000
                      *** Initiating the SOSCF procedure ***
                           *** Shutting down DIIS ***
                      *** Re-Reading the Fockian *** 
                      *** Removing any level shift *** 
ITER      Energy       Delta-E        Grad      Rot      Max-DP    RMS-DP
  6  -1955.15622399  -0.0001969319  0.000352  0.000352  0.001821  0.000028
               *** Restarting incremental Fock matrix formation ***
  7  -1955.15625287  -0.0000288731  0.000202  0.001639  0.001262  0.000020
  8  -1955.15624824   0.0000046252  0.000347  0.000378  0.001012  0.000011
  9  -1955.15625683  -0.0000085941  0.000072  0.000574  0.000806  0.000008
 10  -1955.15625552   0.0000013190  0.000170  0.000181  0.000557  0.000005
 11  -1955.15625734  -0.0000018223  0.000022  0.000169  0.000112  0.000002
                 **** Energy Check signals convergence ****
              ***Rediagonalizing the Fockian in SOSCF/NRSCF***

               *****************************************************
               *                     SUCCESS                       *
               *           SCF CONVERGED AFTER  12 CYCLES          *
               *****************************************************


----------------
TOTAL SCF ENERGY
----------------

Total Energy       :        -1955.15625726 Eh          -53202.50652 eV

Components:
Nuclear Repulsion  :         3084.30032212 Eh           83928.07859 eV
Electronic Energy  :        -5039.45657938 Eh         -137130.58511 eV
One Electron Energy:        -8816.38009750 Eh         -239905.89903 eV
Two Electron Energy:         3776.92351812 Eh          102775.31392 eV
CPCM Dielectric    :           -0.01511615 Eh              -0.41133 eV

Virial components:
Potential Energy   :        -3896.43816220 Eh         -106027.47273 eV
Kinetic Energy     :         1941.28190493 Eh           52824.96620 eV
Virial Ratio       :            2.00714701


DFT components:
N(Alpha)           :      117.999854555606 electrons
N(Beta)            :      117.999854555606 electrons
N(Total)           :      235.999709111211 electrons
E(X)               :     -220.906483552725 Eh       
E(C)               :       -8.133062843873 Eh       
E(XC)              :     -229.039546396597 Eh       
DFET-embed. en.    :        0.000000000000 Eh       
CPCM Solvation Model Properties:
Surface-charge          :           -0.02471074
Charge-correction       :            0.00001226 Eh               0.00033 eV
Free-energy (cav+disp)  :  This term is not implemented in the current solvation scheme

---------------
SCF CONVERGENCE
---------------

  Last Energy change         ...    7.3635e-08  Tolerance :   1.0000e-06
  Last MAX-Density change    ...    8.3074e-05  Tolerance :   1.0000e-05
  Last RMS-Density change    ...    1.3476e-06  Tolerance :   1.0000e-06
  Last Orbital Gradient      ...    5.3549e-05  Tolerance :   5.0000e-05
  Last Orbital Rotation      ...    8.1019e-05  Tolerance :   5.0000e-05

             **** THE GBW FILE WAS UPDATED (/home/sk77/PycharmProjects/omg_database_publication/run_calculation/calculation_results/pareto_greedy/0/reaction_10005258/opt_n_1/conformer_3/property.gbw) ****
             **** DENSITY /home/sk77/PycharmProjects/omg_database_publication/run_calculation/calculation_results/pareto_greedy/0/reaction_10005258/opt_n_1/conformer_3/property.scfp WAS UPDATED ****
             **** ENERGY FILE WAS UPDATED (/home/sk77/PycharmProjects/omg_database_publication/run_calculation/calculation_results/pareto_greedy/0/reaction_10005258/opt_n_1/conformer_3/property.en.tmp) ****
             **** THE GBW FILE WAS UPDATED (/home/sk77/PycharmProjects/omg_database_publication/run_calculation/calculation_results/pareto_greedy/0/reaction_10005258/opt_n_1/conformer_3/property.gbw) ****
             **** DENSITY /home/sk77/PycharmProjects/omg_database_publication/run_calculation/calculation_results/pareto_greedy/0/reaction_10005258/opt_n_1/conformer_3/property.scfp WAS UPDATED ****
----------------
ORBITAL ENERGIES
----------------

  NO   OCC          E(Eh)            E(eV) 
   0   2.0000     -87.983657     -2394.1570 
   1   2.0000     -24.301695      -661.2827 
   2   2.0000     -24.300971      -661.2631 
   3   2.0000     -24.300441      -661.2486 
   4   2.0000     -18.845625      -512.8155 
   5   2.0000     -18.836665      -512.5717 
   6   2.0000     -18.814456      -511.9674 
   7   2.0000     -18.762732      -510.5599 
   8   2.0000     -18.761455      -510.5252 
   9   2.0000     -14.066014      -382.7557 
  10   2.0000     -14.047788      -382.2597 
  11   2.0000     -10.184768      -277.1416 
  12   2.0000     -10.036177      -273.0983 
  13   2.0000     -10.013784      -272.4889 
  14   2.0000      -9.992904      -271.9207 
  15   2.0000      -9.991656      -271.8868 
  16   2.0000      -9.985107      -271.7086 
  17   2.0000      -9.981876      -271.6206 
  18   2.0000      -9.969457      -271.2827 
  19   2.0000      -9.965210      -271.1671 
  20   2.0000      -9.962382      -271.0902 
  21   2.0000      -9.931458      -270.2487 
  22   2.0000      -9.926300      -270.1083 
  23   2.0000      -9.925654      -270.0908 
  24   2.0000      -9.925389      -270.0836 
  25   2.0000      -9.921769      -269.9851 
  26   2.0000      -9.919382      -269.9201 
  27   2.0000      -9.915465      -269.8135 
  28   2.0000      -9.915352      -269.8104 
  29   2.0000      -9.914629      -269.7908 
  30   2.0000      -9.908727      -269.6302 
  31   2.0000      -7.617463      -207.2817 
  32   2.0000      -5.640842      -153.4951 
  33   2.0000      -5.633897      -153.3061 
  34   2.0000      -5.630207      -153.2057 
  35   2.0000      -1.209679       -32.9170 
  36   2.0000      -1.106817       -30.1180 
  37   2.0000      -1.102492       -30.0003 
  38   2.0000      -1.029637       -28.0178 
  39   2.0000      -1.023525       -27.8515 
  40   2.0000      -0.987140       -26.8615 
  41   2.0000      -0.946722       -25.7616 
  42   2.0000      -0.935200       -25.4481 
  43   2.0000      -0.923712       -25.1355 
  44   2.0000      -0.857341       -23.3294 
  45   2.0000      -0.799617       -21.7587 
  46   2.0000      -0.792276       -21.5589 
  47   2.0000      -0.729180       -19.8420 
  48   2.0000      -0.720721       -19.6118 
  49   2.0000      -0.711868       -19.3709 
  50   2.0000      -0.705185       -19.1891 
  51   2.0000      -0.691561       -18.8183 
  52   2.0000      -0.665982       -18.1223 
  53   2.0000      -0.652338       -17.7510 
  54   2.0000      -0.644397       -17.5349 
  55   2.0000      -0.635915       -17.3041 
  56   2.0000      -0.623737       -16.9728 
  57   2.0000      -0.596956       -16.2440 
  58   2.0000      -0.584095       -15.8940 
  59   2.0000      -0.579805       -15.7773 
  60   2.0000      -0.572283       -15.5726 
  61   2.0000      -0.560233       -15.2447 
  62   2.0000      -0.541620       -14.7382 
  63   2.0000      -0.539585       -14.6828 
  64   2.0000      -0.531971       -14.4757 
  65   2.0000      -0.513403       -13.9704 
  66   2.0000      -0.503756       -13.7079 
  67   2.0000      -0.490368       -13.3436 
  68   2.0000      -0.472444       -12.8558 
  69   2.0000      -0.467876       -12.7316 
  70   2.0000      -0.461430       -12.5562 
  71   2.0000      -0.455424       -12.3927 
  72   2.0000      -0.452147       -12.3035 
  73   2.0000      -0.444532       -12.0963 
  74   2.0000      -0.443037       -12.0556 
  75   2.0000      -0.433421       -11.7940 
  76   2.0000      -0.431414       -11.7394 
  77   2.0000      -0.426656       -11.6099 
  78   2.0000      -0.413856       -11.2616 
  79   2.0000      -0.413250       -11.2451 
  80   2.0000      -0.409763       -11.1502 
  81   2.0000      -0.408350       -11.1118 
  82   2.0000      -0.407206       -11.0806 
  83   2.0000      -0.404286       -11.0012 
  84   2.0000      -0.398883       -10.8542 
  85   2.0000      -0.388394       -10.5687 
  86   2.0000      -0.387926       -10.5560 
  87   2.0000      -0.386094       -10.5061 
  88   2.0000      -0.372929       -10.1479 
  89   2.0000      -0.369091       -10.0435 
  90   2.0000      -0.364791        -9.9265 
  91   2.0000      -0.364237        -9.9114 
  92   2.0000      -0.356537        -9.7019 
  93   2.0000      -0.353117        -9.6088 
  94   2.0000      -0.349755        -9.5173 
  95   2.0000      -0.349066        -9.4986 
  96   2.0000      -0.347392        -9.4530 
  97   2.0000      -0.342324        -9.3151 
  98   2.0000      -0.338101        -9.2002 
  99   2.0000      -0.336817        -9.1653 
 100   2.0000      -0.332840        -9.0570 
 101   2.0000      -0.331731        -9.0268 
 102   2.0000      -0.330227        -8.9859 
 103   2.0000      -0.324353        -8.8261 
 104   2.0000      -0.321631        -8.7520 
 105   2.0000      -0.317682        -8.6446 
 106   2.0000      -0.303717        -8.2646 
 107   2.0000      -0.298246        -8.1157 
 108   2.0000      -0.279025        -7.5927 
 109   2.0000      -0.270698        -7.3661 
 110   2.0000      -0.246151        -6.6981 
 111   2.0000      -0.239646        -6.5211 
 112   2.0000      -0.224922        -6.1204 
 113   2.0000      -0.213914        -5.8209 
 114   2.0000      -0.209698        -5.7062 
 115   2.0000      -0.204635        -5.5684 
 116   2.0000      -0.185127        -5.0376 
 117   2.0000      -0.173321        -4.7163 
 118   0.0000      -0.096705        -2.6315 
 119   0.0000      -0.081810        -2.2262 
 120   0.0000      -0.046648        -1.2694 
 121   0.0000      -0.036468        -0.9923 
 122   0.0000      -0.031090        -0.8460 
 123   0.0000       0.008548         0.2326 
 124   0.0000       0.023911         0.6506 
 125   0.0000       0.026934         0.7329 
 126   0.0000       0.037464         1.0194 
 127   0.0000       0.040534         1.1030 
 128   0.0000       0.048989         1.3331 
 129   0.0000       0.054994         1.4965 
 130   0.0000       0.057554         1.5661 
 131   0.0000       0.078418         2.1339 
 132   0.0000       0.080420         2.1883 
 133   0.0000       0.089016         2.4223 
 134   0.0000       0.095800         2.6068 
 135   0.0000       0.097862         2.6629 
 136   0.0000       0.101886         2.7725 
 137   0.0000       0.103062         2.8045 
 138   0.0000       0.105168         2.8618 
 139   0.0000       0.105663         2.8752 
 140   0.0000       0.110799         3.0150 
 141   0.0000       0.111205         3.0260 
 142   0.0000       0.112535         3.0622 
 143   0.0000       0.118551         3.2259 
 144   0.0000       0.121059         3.2942 
 145   0.0000       0.123073         3.3490 
 146   0.0000       0.125348         3.4109 
 147   0.0000       0.127871         3.4795 
 148   0.0000       0.136793         3.7223 
 149   0.0000       0.149707         4.0737 
 150   0.0000       0.153777         4.1845 
 151   0.0000       0.157808         4.2942 
 152   0.0000       0.162539         4.4229 
 153   0.0000       0.170333         4.6350 
 154   0.0000       0.187475         5.1014 
 155   0.0000       0.193269         5.2591 
 156   0.0000       0.194188         5.2841 
 157   0.0000       0.202852         5.5199 
 158   0.0000       0.213096         5.7986 
 159   0.0000       0.215207         5.8561 
 160   0.0000       0.225333         6.1316 
 161   0.0000       0.242024         6.5858 
 162   0.0000       0.246609         6.7106 
 163   0.0000       0.247074         6.7232 
 164   0.0000       0.253563         6.8998 
 165   0.0000       0.258952         7.0464 
 166   0.0000       0.264611         7.2004 
 167   0.0000       0.270993         7.3741 
 168   0.0000       0.274196         7.4613 
 169   0.0000       0.279920         7.6170 
 170   0.0000       0.286295         7.7905 
 171   0.0000       0.290969         7.9177 
 172   0.0000       0.301550         8.2056 
 173   0.0000       0.314479         8.5574 
 174   0.0000       0.317456         8.6384 
 175   0.0000       0.321698         8.7538 
 176   0.0000       0.325353         8.8533 
 177   0.0000       0.331396         9.0178 
 178   0.0000       0.357255         9.7214 
 179   0.0000       0.363675         9.8961 
 180   0.0000       0.375921        10.2293 
 181   0.0000       0.376919        10.2565 
 182   0.0000       0.380667        10.3585 
 183   0.0000       0.386716        10.5231 
 184   0.0000       0.395095        10.7511 
 185   0.0000       0.398833        10.8528 
 186   0.0000       0.401855        10.9350 
 187   0.0000       0.406609        11.0644 
 188   0.0000       0.411263        11.1910 
 189   0.0000       0.413075        11.2403 
 190   0.0000       0.416900        11.3444 
 191   0.0000       0.423284        11.5181 
 192   0.0000       0.424582        11.5535 
 193   0.0000       0.428648        11.6641 
 194   0.0000       0.434711        11.8291 
 195   0.0000       0.445017        12.1095 
 196   0.0000       0.446277        12.1438 
 197   0.0000       0.449013        12.2183 
 198   0.0000       0.453383        12.3372 
 199   0.0000       0.457446        12.4477 
 200   0.0000       0.459946        12.5158 
 201   0.0000       0.466710        12.6998 
 202   0.0000       0.473721        12.8906 
 203   0.0000       0.479233        13.0406 
 204   0.0000       0.497575        13.5397 
 205   0.0000       0.503847        13.7104 
 206   0.0000       0.509070        13.8525 
 207   0.0000       0.518438        14.1074 
 208   0.0000       0.528222        14.3737 
 209   0.0000       0.533494        14.5171 
 210   0.0000       0.539771        14.6879 
 211   0.0000       0.544283        14.8107 
 212   0.0000       0.547570        14.9001 
 213   0.0000       0.559180        15.2160 
 214   0.0000       0.562012        15.2931 
 215   0.0000       0.566361        15.4115 
 216   0.0000       0.569065        15.4850 
 217   0.0000       0.576313        15.6823 
 218   0.0000       0.581380        15.8202 
 219   0.0000       0.585126        15.9221 
 220   0.0000       0.586780        15.9671 
 221   0.0000       0.592919        16.1341 
 222   0.0000       0.593704        16.1555 
 223   0.0000       0.595870        16.2144 
 224   0.0000       0.601358        16.3638 
 225   0.0000       0.603300        16.4166 
 226   0.0000       0.607388        16.5279 
 227   0.0000       0.608976        16.5711 
 228   0.0000       0.615004        16.7351 
 229   0.0000       0.618721        16.8363 
 230   0.0000       0.621448        16.9105 
 231   0.0000       0.624012        16.9802 
 232   0.0000       0.628569        17.1042 
 233   0.0000       0.629555        17.1311 
 234   0.0000       0.633447        17.2370 
 235   0.0000       0.635644        17.2968 
 236   0.0000       0.637672        17.3519 
 237   0.0000       0.644792        17.5457 
 238   0.0000       0.647144        17.6097 
 239   0.0000       0.650556        17.7025 
 240   0.0000       0.652821        17.7642 
 241   0.0000       0.661159        17.9911 
 242   0.0000       0.662802        18.0358 
 243   0.0000       0.671295        18.2669 
 244   0.0000       0.674802        18.3623 
 245   0.0000       0.680387        18.5143 
 246   0.0000       0.689353        18.7583 
 247   0.0000       0.690431        18.7876 
 248   0.0000       0.694323        18.8935 
 249   0.0000       0.705379        19.1943 
 250   0.0000       0.709500        19.3065 
 251   0.0000       0.714098        19.4316 
 252   0.0000       0.729282        19.8448 
 253   0.0000       0.733238        19.9524 
 254   0.0000       0.736468        20.0403 
 255   0.0000       0.741029        20.1644 
 256   0.0000       0.744394        20.2560 
 257   0.0000       0.752276        20.4705 
 258   0.0000       0.755333        20.5537 
 259   0.0000       0.769732        20.9455 
 260   0.0000       0.783383        21.3169 
 261   0.0000       0.789048        21.4711 
 262   0.0000       0.793063        21.5803 
 263   0.0000       0.810917        22.0662 
 264   0.0000       0.819751        22.3065 
 265   0.0000       0.827536        22.5184 
 266   0.0000       0.836737        22.7688 
 267   0.0000       0.840791        22.8791 
 268   0.0000       0.853157        23.2156 
 269   0.0000       0.862024        23.4569 
 270   0.0000       0.871452        23.7134 
 271   0.0000       0.889854        24.2141 
 272   0.0000       0.912563        24.8321 
 273   0.0000       0.918513        24.9940 
 274   0.0000       0.931004        25.3339 
 275   0.0000       0.934015        25.4158 
 276   0.0000       0.940333        25.5878 
 277   0.0000       0.949831        25.8462 
 278   0.0000       0.958411        26.0797 
 279   0.0000       0.965692        26.2778 
 280   0.0000       0.968749        26.3610 
 281   0.0000       0.974031        26.5047 
 282   0.0000       0.981790        26.7159 
 283   0.0000       0.991840        26.9893 
 284   0.0000       1.026629        27.9360 
 285   0.0000       1.032307        28.0905 
 286   0.0000       1.038289        28.2533 
 287   0.0000       1.040997        28.3270 
 288   0.0000       1.046796        28.4848 
 289   0.0000       1.064842        28.9758 
 290   0.0000       1.069068        29.0908 
 291   0.0000       1.075056        29.2537 
 292   0.0000       1.082626        29.4598 
 293   0.0000       1.094538        29.7839 
 294   0.0000       1.097619        29.8677 
 295   0.0000       1.112504        30.2728 
 296   0.0000       1.117474        30.4080 
 297   0.0000       1.121021        30.5045 
 298   0.0000       1.123372        30.5685 
 299   0.0000       1.133955        30.8565 
 300   0.0000       1.139203        30.9993 
 301   0.0000       1.149207        31.2715 
 302   0.0000       1.154147        31.4059 
 303   0.0000       1.159245        31.5447 
 304   0.0000       1.167820        31.7780 
 305   0.0000       1.179588        32.0982 
 306   0.0000       1.182779        32.1850 
 307   0.0000       1.194104        32.4932 
 308   0.0000       1.199689        32.6452 
 309   0.0000       1.204231        32.7688 
 310   0.0000       1.210260        32.9328 
 311   0.0000       1.210539        32.9404 
 312   0.0000       1.234546        33.5937 
 313   0.0000       1.238252        33.6946 
 314   0.0000       1.259314        34.2677 
 315   0.0000       1.263289        34.3759 
 316   0.0000       1.271470        34.5985 
 317   0.0000       1.276460        34.7342 
 318   0.0000       1.277646        34.7665 
 319   0.0000       1.285960        34.9928 
 320   0.0000       1.294038        35.2126 
 321   0.0000       1.300930        35.4001 
 322   0.0000       1.308575        35.6081 
 323   0.0000       1.313486        35.7418 
 324   0.0000       1.322175        35.9782 
 325   0.0000       1.328470        36.1495 
 326   0.0000       1.331221        36.2244 
 327   0.0000       1.340424        36.4748 
 328   0.0000       1.370962        37.3058 
 329   0.0000       1.374316        37.3970 
 330   0.0000       1.398843        38.0645 
 331   0.0000       1.407969        38.3128 
 332   0.0000       1.417845        38.5815 
 333   0.0000       1.431539        38.9542 
 334   0.0000       1.441583        39.2275 
 335   0.0000       1.442954        39.2648 
 336   0.0000       1.448712        39.4215 
 337   0.0000       1.455003        39.5926 
 338   0.0000       1.455529        39.6070 
 339   0.0000       1.466453        39.9042 
 340   0.0000       1.471141        40.0318 
 341   0.0000       1.490436        40.5568 
 342   0.0000       1.497399        40.7463 
 343   0.0000       1.513268        41.1781 
 344   0.0000       1.523377        41.4532 
 345   0.0000       1.526409        41.5357 
 346   0.0000       1.549606        42.1669 
 347   0.0000       1.554118        42.2897 
 348   0.0000       1.567786        42.6616 
 349   0.0000       1.569860        42.7181 
 350   0.0000       1.600724        43.5579 
 351   0.0000       1.614586        43.9351 
 352   0.0000       1.615359        43.9561 
 353   0.0000       1.630356        44.3643 
 354   0.0000       1.634193        44.4686 
 355   0.0000       1.644227        44.7417 
 356   0.0000       1.645416        44.7741 
 357   0.0000       1.652297        44.9613 
 358   0.0000       1.659117        45.1469 
 359   0.0000       1.664329        45.2887 
 360   0.0000       1.669596        45.4320 
 361   0.0000       1.674769        45.5728 
 362   0.0000       1.680652        45.7329 
 363   0.0000       1.689250        45.9668 
 364   0.0000       1.693258        46.0759 
 365   0.0000       1.700331        46.2683 
 366   0.0000       1.701514        46.3006 
 367   0.0000       1.707694        46.4687 
 368   0.0000       1.711566        46.5741 
 369   0.0000       1.714502        46.6540 
 370   0.0000       1.718662        46.7672 
 371   0.0000       1.726638        46.9842 
 372   0.0000       1.727542        47.0088 
 373   0.0000       1.730752        47.0962 
 374   0.0000       1.732417        47.1415 
 375   0.0000       1.736686        47.2576 
 376   0.0000       1.738388        47.3039 
 377   0.0000       1.746417        47.5224 
 378   0.0000       1.750039        47.6210 
 379   0.0000       1.754410        47.7399 
 380   0.0000       1.754934        47.7542 
 381   0.0000       1.769236        48.1434 
 382   0.0000       1.775019        48.3007 
 383   0.0000       1.785539        48.5870 
 384   0.0000       1.789990        48.7081 
 385   0.0000       1.807602        49.1874 
 386   0.0000       1.817348        49.4526 
 387   0.0000       1.820308        49.5331 
 388   0.0000       1.834061        49.9073 
 389   0.0000       1.836820        49.9824 
 390   0.0000       1.849996        50.3410 
 391   0.0000       1.857911        50.5563 
 392   0.0000       1.864659        50.7400 
 393   0.0000       1.870404        50.8963 
 394   0.0000       1.874983        51.0209 
 395   0.0000       1.877779        51.0970 
 396   0.0000       1.880417        51.1687 
 397   0.0000       1.895994        51.5926 
 398   0.0000       1.898764        51.6680 
 399   0.0000       1.906711        51.8842 
 400   0.0000       1.912022        52.0288 
 401   0.0000       1.923287        52.3353 
 402   0.0000       1.931587        52.5612 
 403   0.0000       1.934465        52.6395 
 404   0.0000       1.945443        52.9382 
 405   0.0000       1.960587        53.3503 
 406   0.0000       1.968814        53.5742 
 407   0.0000       1.996320        54.3226 
 408   0.0000       2.000672        54.4411 
 409   0.0000       2.003496        54.5179 
 410   0.0000       2.031116        55.2695 
 411   0.0000       2.040265        55.5184 
 412   0.0000       2.048902        55.7535 
 413   0.0000       2.053317        55.8736 
 414   0.0000       2.070483        56.3407 
 415   0.0000       2.071616        56.3715 
 416   0.0000       2.078215        56.5511 
 417   0.0000       2.096851        57.0582 
 418   0.0000       2.101797        57.1928 
 419   0.0000       2.120104        57.6910 
 420   0.0000       2.121402        57.7263 
 421   0.0000       2.127529        57.8930 
 422   0.0000       2.139565        58.2205 
 423   0.0000       2.156918        58.6927 
 424   0.0000       2.167273        58.9745 
 425   0.0000       2.173423        59.1418 
 426   0.0000       2.180146        59.3248 
 427   0.0000       2.186136        59.4878 
 428   0.0000       2.191295        59.6282 
 429   0.0000       2.202320        59.9282 
 430   0.0000       2.206424        60.0398 
 431   0.0000       2.219703        60.4012 
 432   0.0000       2.225133        60.5489 
 433   0.0000       2.238325        60.9079 
 434   0.0000       2.240853        60.9767 
 435   0.0000       2.246796        61.1384 
 436   0.0000       2.255222        61.3677 
 437   0.0000       2.262980        61.5788 
 438   0.0000       2.268385        61.7259 
 439   0.0000       2.300422        62.5977 
 440   0.0000       2.322135        63.1885 
 441   0.0000       2.332225        63.4631 
 442   0.0000       2.340246        63.6813 
 443   0.0000       2.347489        63.8784 
 444   0.0000       2.355571        64.0983 
 445   0.0000       2.374270        64.6072 
 446   0.0000       2.383941        64.8703 
 447   0.0000       2.391037        65.0634 
 448   0.0000       2.409780        65.5735 
 449   0.0000       2.442725        66.4699 
 450   0.0000       2.463911        67.0464 
 451   0.0000       2.469691        67.2037 
 452   0.0000       2.482130        67.5422 
 453   0.0000       2.491155        67.7878 
 454   0.0000       2.496922        67.9447 
 455   0.0000       2.505406        68.1756 
 456   0.0000       2.516217        68.4698 
 457   0.0000       2.535498        68.9944 
 458   0.0000       2.558557        69.6219 
 459   0.0000       2.560516        69.6752 
 460   0.0000       2.576211        70.1023 
 461   0.0000       2.579519        70.1923 
 462   0.0000       2.588012        70.4234 
 463   0.0000       2.594447        70.5985 
 464   0.0000       2.599913        70.7472 
 465   0.0000       2.603748        70.8516 
 466   0.0000       2.614877        71.1544 
 467   0.0000       2.618321        71.2481 
 468   0.0000       2.623670        71.3937 
 469   0.0000       2.639003        71.8109 
 470   0.0000       2.643986        71.9465 
 471   0.0000       2.664333        72.5002 
 472   0.0000       2.702802        73.5470 
 473   0.0000       2.709658        73.7336 
 474   0.0000       2.725184        74.1560 
 475   0.0000       2.743783        74.6621 
 476   0.0000       2.759036        75.0772 
 477   0.0000       2.770150        75.3796 
 478   0.0000       2.774531        75.4988 
 479   0.0000       2.786853        75.8341 
 480   0.0000       2.791111        75.9500 
 481   0.0000       2.794630        76.0457 
 482   0.0000       2.807882        76.4063 
 483   0.0000       2.811702        76.5103 
 484   0.0000       2.831338        77.0446 
 485   0.0000       2.839630        77.2703 
 486   0.0000       2.847116        77.4740 
 487   0.0000       2.854429        77.6730 
 488   0.0000       2.857170        77.7476 
 489   0.0000       2.862207        77.8846 
 490   0.0000       2.893181        78.7275 
 491   0.0000       2.903237        79.0011 
 492   0.0000       2.916379        79.3587 
 493   0.0000       2.925597        79.6095 
 494   0.0000       2.934512        79.8521 
 495   0.0000       2.940887        80.0256 
 496   0.0000       2.941188        80.0338 
 497   0.0000       2.947851        80.2151 
 498   0.0000       2.953634        80.3725 
 499   0.0000       2.954782        80.4037 
 500   0.0000       2.967438        80.7481 
 501   0.0000       2.975064        80.9556 
 502   0.0000       2.976715        81.0005 
 503   0.0000       2.982004        81.1444 
 504   0.0000       2.999876        81.6308 
 505   0.0000       3.020011        82.1787 
 506   0.0000       3.028865        82.4196 
 507   0.0000       3.045185        82.8637 
 508   0.0000       3.048689        82.9591 
 509   0.0000       3.081023        83.8389 
 510   0.0000       3.100087        84.3577 
 511   0.0000       3.126559        85.0780 
 512   0.0000       3.133197        85.2586 
 513   0.0000       3.148580        85.6772 
 514   0.0000       3.179585        86.5209 
 515   0.0000       3.236537        88.0706 
 516   0.0000       3.274267        89.0973 
 517   0.0000       3.309497        90.0560 
 518   0.0000       3.334649        90.7404 
 519   0.0000       3.373636        91.8013 
 520   0.0000       3.409179        92.7685 
 521   0.0000       3.416825        92.9765 
 522   0.0000       3.442863        93.6851 
 523   0.0000       3.446600        93.7867 
 524   0.0000       3.496477        95.1440 
 525   0.0000       3.531034        96.0843 
 526   0.0000       3.539498        96.3146 
 527   0.0000       3.577162        97.3395 
 528   0.0000       3.598447        97.9187 
 529   0.0000       3.627469        98.7084 
 530   0.0000       3.698961       100.6539 
 531   0.0000       3.742733       101.8450 
 532   0.0000       3.804577       103.5278 

                    ********************************
                    * MULLIKEN POPULATION ANALYSIS *
                    ********************************

-----------------------
MULLIKEN ATOMIC CHARGES
-----------------------
   0 H :   -0.027447
   1 C :   -0.076728
   2 C :    0.182114
   3 O :   -0.241849
   4 C :    0.244201
   5 O :   -0.194503
   6 C :   -0.075155
   7 C :    0.007420
   8 H :   -0.015320
   9 C :    0.014550
  10 C :   -0.019032
  11 O :   -0.196747
  12 C :    0.073803
  13 H :    0.048764
  14 H :    0.048518
  15 H :    0.025604
  16 C :   -0.035999
  17 H :   -0.026845
  18 C :    0.149273
  19 N :   -0.038040
  20 H :    0.136487
  21 C :    0.011363
  22 S :   -0.322225
  23 N :   -0.110870
  24 H :    0.131582
  25 C :    0.061048
  26 H :    0.039280
  27 H :    0.040535
  28 C :   -0.033399
  29 H :    0.038929
  30 H :    0.039836
  31 H :    0.036399
  32 C :    0.004990
  33 H :   -0.011166
  34 C :   -0.006355
  35 H :   -0.010112
  36 C :    0.177547
  37 O :   -0.212927
  38 C :    0.472521
  39 F :   -0.161432
  40 F :   -0.132360
  41 F :   -0.158825
  42 C :   -0.048926
  43 H :   -0.009182
  44 C :    0.184259
  45 O :   -0.287456
  46 C :    0.169502
  47 H :    0.036650
  48 H :    0.034090
  49 H :    0.043634
Sum of atomic charges:    0.0000000

--------------------------------
MULLIKEN REDUCED ORBITAL CHARGES
--------------------------------
  0 H s       :     1.002234  s :     1.002234
      pz      :     0.013927  p :     0.025213
      px      :     0.005988
      py      :     0.005298
  1 C s       :     3.334402  s :     3.334402
      pz      :     0.745079  p :     2.713601
      px      :     0.978380
      py      :     0.990143
      dz2     :     0.006373  d :     0.028725
      dxz     :     0.005801
      dyz     :     0.006042
      dx2y2   :     0.005883
      dxy     :     0.004626
  2 C s       :     2.958499  s :     2.958499
      pz      :     0.979874  p :     2.788893
      px      :     0.921322
      py      :     0.887697
      dz2     :     0.014756  d :     0.070494
      dxz     :     0.015192
      dyz     :     0.015423
      dx2y2   :     0.012281
      dxy     :     0.012843
  3 O s       :     3.718439  s :     3.718439
      pz      :     1.652315  p :     4.507265
      px      :     1.313275
      py      :     1.541675
      dz2     :     0.002311  d :     0.016145
      dxz     :     0.004312
      dyz     :     0.002622
      dx2y2   :     0.003775
      dxy     :     0.003124
  4 C s       :     3.007914  s :     3.007914
      pz      :     0.864520  p :     2.617422
      px      :     0.827378
      py      :     0.925524
      dz2     :     0.026071  d :     0.130463
      dxz     :     0.034385
      dyz     :     0.020990
      dx2y2   :     0.028896
      dxy     :     0.020121
  5 O s       :     3.742735  s :     3.742735
      pz      :     1.343804  p :     4.433905
      px      :     1.612020
      py      :     1.478081
      dz2     :     0.005241  d :     0.017863
      dxz     :     0.003325
      dyz     :     0.005017
      dx2y2   :     0.001882
      dxy     :     0.002398
  6 C s       :     3.104563  s :     3.104563
      pz      :     0.970374  p :     2.931863
      px      :     0.996802
      py      :     0.964687
      dz2     :     0.007802  d :     0.038729
      dxz     :     0.008517
      dyz     :     0.006673
      dx2y2   :     0.007291
      dxy     :     0.008446
  7 C s       :     3.306900  s :     3.306900
      pz      :     0.917357  p :     2.653157
      px      :     0.816769
      py      :     0.919031
      dz2     :     0.006617  d :     0.032523
      dxz     :     0.006112
      dyz     :     0.006440
      dx2y2   :     0.006980
      dxy     :     0.006374
  8 H s       :     0.990344  s :     0.990344
      pz      :     0.006370  p :     0.024976
      px      :     0.012883
      py      :     0.005723
  9 C s       :     3.077495  s :     3.077495
      pz      :     0.972966  p :     2.869440
      px      :     0.951416
      py      :     0.945058
      dz2     :     0.006289  d :     0.038515
      dxz     :     0.007415
      dyz     :     0.007688
      dx2y2   :     0.008937
      dxy     :     0.008186
 10 C s       :     3.157187  s :     3.157187
      pz      :     0.910489  p :     2.768719
      px      :     0.972268
      py      :     0.885962
      dz2     :     0.014719  d :     0.093125
      dxz     :     0.013396
      dyz     :     0.020696
      dx2y2   :     0.024328
      dxy     :     0.019987
 11 O s       :     3.743717  s :     3.743717
      pz      :     1.556820  p :     4.436067
      px      :     1.530617
      py      :     1.348630
      dz2     :     0.002197  d :     0.016963
      dxz     :     0.002250
      dyz     :     0.003326
      dx2y2   :     0.004487
      dxy     :     0.004703
 12 C s       :     2.905797  s :     2.905797
      pz      :     0.996734  p :     2.998785
      px      :     0.997240
      py      :     1.004811
      dz2     :     0.002355  d :     0.021615
      dxz     :     0.006527
      dyz     :     0.004518
      dx2y2   :     0.006144
      dxy     :     0.002071
 13 H s       :     0.925314  s :     0.925314
      pz      :     0.009236  p :     0.025922
      px      :     0.010565
      py      :     0.006122
 14 H s       :     0.925513  s :     0.925513
      pz      :     0.007267  p :     0.025970
      px      :     0.005416
      py      :     0.013286
 15 H s       :     0.950296  s :     0.950296
      pz      :     0.010249  p :     0.024100
      px      :     0.004720
      py      :     0.009131
 16 C s       :     3.345273  s :     3.345273
      pz      :     0.908843  p :     2.659408
      px      :     0.923874
      py      :     0.826691
      dz2     :     0.007116  d :     0.031318
      dxz     :     0.006377
      dyz     :     0.005257
      dx2y2   :     0.005490
      dxy     :     0.007078
 17 H s       :     1.001924  s :     1.001924
      pz      :     0.006381  p :     0.024921
      px      :     0.006540
      py      :     0.012000
 18 C s       :     2.938828  s :     2.938828
      pz      :     0.942362  p :     2.853485
      px      :     0.888685
      py      :     1.022439
      dz2     :     0.011372  d :     0.058414
      dxz     :     0.012590
      dyz     :     0.009427
      dx2y2   :     0.013967
      dxy     :     0.011059
 19 N s       :     3.314664  s :     3.314664
      pz      :     1.427467  p :     3.701900
      px      :     1.164885
      py      :     1.109547
      dz2     :     0.003498  d :     0.021476
      dxz     :     0.004631
      dyz     :     0.002694
      dx2y2   :     0.005635
      dxy     :     0.005019
 20 H s       :     0.817073  s :     0.817073
      pz      :     0.012085  p :     0.046441
      px      :     0.009898
      py      :     0.024457
 21 C s       :     3.069967  s :     3.069967
      pz      :     0.951836  p :     2.829621
      px      :     0.936375
      py      :     0.941409
      dz2     :     0.014089  d :     0.089049
      dxz     :     0.012835
      dyz     :     0.018688
      dx2y2   :     0.016580
      dxy     :     0.026856
 22 S s       :     5.939825  s :     5.939825
      pz      :     3.637792  p :    10.332148
      px      :     3.736398
      py      :     2.957959
      dz2     :     0.007411  d :     0.050252
      dxz     :     0.000468
      dyz     :     0.011908
      dx2y2   :     0.022693
      dxy     :     0.007771
 23 N s       :     3.354857  s :     3.354857
      pz      :     1.464636  p :     3.735092
      px      :     1.205976
      py      :     1.064480
      dz2     :     0.002190  d :     0.020921
      dxz     :     0.002566
      dyz     :     0.004596
      dx2y2   :     0.004905
      dxy     :     0.006663
 24 H s       :     0.823009  s :     0.823009
      pz      :     0.015217  p :     0.045409
      px      :     0.017477
      py      :     0.012714
 25 C s       :     3.001894  s :     3.001894
      pz      :     1.032305  p :     2.889837
      px      :     1.045002
      py      :     0.812530
      dz2     :     0.010724  d :     0.047222
      dxz     :     0.004702
      dyz     :     0.009306
      dx2y2   :     0.012655
[...]
      dx2y2   :     0.014072
      dxy     :     0.019745
 24 H s       :     0.784853  s :     0.784853
      pz      :     0.044847  p :     0.127351
      px      :     0.048519
      py      :     0.033985
 25 C s       :     2.834632  s :     2.834632
      pz      :     1.072851  p :     3.022876
      px      :     1.066943
      py      :     0.883081
      dz2     :     0.026520  d :     0.113474
      dxz     :     0.013285
      dyz     :     0.020338
      dx2y2   :     0.031371
      dxy     :     0.021961
 26 H s       :     0.899994  s :     0.899994
      pz      :     0.017327  p :     0.067803
      px      :     0.033243
      py      :     0.017232
 27 H s       :     0.900572  s :     0.900572
      pz      :     0.040612  p :     0.067644
      px      :     0.014701
      py      :     0.012331
 28 C s       :     2.834517  s :     2.834517
      pz      :     1.051606  p :     3.147242
      px      :     1.027495
      py      :     1.068141
      dz2     :     0.020287  d :     0.068640
      dxz     :     0.014063
      dyz     :     0.005549
      dx2y2   :     0.017694
      dxy     :     0.011047
 29 H s       :     0.900104  s :     0.900104
      pz      :     0.016305  p :     0.068317
      px      :     0.032871
      py      :     0.019141
 30 H s       :     0.900441  s :     0.900441
      pz      :     0.039613  p :     0.068359
      px      :     0.013656
      py      :     0.015089
 31 H s       :     0.893239  s :     0.893239
      pz      :     0.013480  p :     0.068006
      px      :     0.013868
      py      :     0.040658
 32 C s       :     2.862781  s :     2.862781
      pz      :     1.017477  p :     3.046507
      px      :     1.020956
      py      :     1.008073
      dz2     :     0.012707  d :     0.087439
      dxz     :     0.018206
      dyz     :     0.015356
      dx2y2   :     0.020185
      dxy     :     0.020985
 33 H s       :     0.903495  s :     0.903495
      pz      :     0.036427  p :     0.084057
      px      :     0.021507
      py      :     0.026123
 34 C s       :     2.857991  s :     2.857991
      pz      :     1.044162  p :     3.129236
      px      :     1.041877
      py      :     1.043196
      dz2     :     0.024843  d :     0.084619
      dxz     :     0.018033
      dyz     :     0.018621
      dx2y2   :     0.010066
      dxy     :     0.013055
 35 H s       :     0.881491  s :     0.881491
      pz      :     0.030520  p :     0.076109
      px      :     0.021531
      py      :     0.024058
 36 C s       :     2.839022  s :     2.839022
      pz      :     0.839812  p :     2.937236
      px      :     1.038326
      py      :     1.059098
      dz2     :     0.054937  d :     0.161211
      dxz     :     0.036113
      dyz     :     0.034871
      dx2y2   :     0.019547
      dxy     :     0.015743
 37 O s       :     3.421106  s :     3.421106
      pz      :     1.403210  p :     4.578631
      px      :     1.600859
      py      :     1.574563
      dz2     :     0.010405  d :     0.033194
      dxz     :     0.004827
      dyz     :     0.005463
      dx2y2   :     0.003600
      dxy     :     0.008898
 38 C s       :     2.813231  s :     2.813231
      pz      :     0.848968  p :     2.618840
      px      :     0.880846
      py      :     0.889027
      dz2     :     0.116870  d :     0.471751
      dxz     :     0.074985
      dyz     :     0.071522
      dx2y2   :     0.116652
      dxy     :     0.091721
 39 F s       :     3.743021  s :     3.743021
      pz      :     1.854237  p :     5.303699
      px      :     1.552495
      py      :     1.896967
      dz2     :     0.001725  d :     0.012869
      dxz     :     0.003568
      dyz     :     0.000280
      dx2y2   :     0.005292
      dxy     :     0.002005
 40 F s       :     3.730905  s :     3.730905
      pz      :     1.508156  p :     5.293400
      px      :     1.891774
      py      :     1.893470
      dz2     :     0.008646  d :     0.013229
      dxz     :     0.002201
      dyz     :     0.002165
      dx2y2   :     0.000122
      dxy     :     0.000094
 41 F s       :     3.741950  s :     3.741950
      pz      :     1.870264  p :     5.301983
      px      :     1.874067
      py      :     1.557651
      dz2     :     0.001944  d :     0.012973
      dxz     :     0.000386
      dyz     :     0.002747
      dx2y2   :     0.004879
      dxy     :     0.003018
 42 C s       :     2.859049  s :     2.859049
      pz      :     1.041332  p :     3.141373
      px      :     1.050260
      py      :     1.049782
      dz2     :     0.025620  d :     0.083562
      dxz     :     0.020509
      dyz     :     0.021539
      dx2y2   :     0.005499
      dxy     :     0.010395
 43 H s       :     0.886938  s :     0.886938
      pz      :     0.013706  p :     0.077256
      px      :     0.031395
      py      :     0.032155
 44 C s       :     2.831986  s :     2.831986
      pz      :     0.978899  p :     2.939266
      px      :     0.987348
      py      :     0.973019
      dz2     :     0.042773  d :     0.179412
      dxz     :     0.040671
      dyz     :     0.042964
      dx2y2   :     0.028097
      dxy     :     0.024907
 45 O s       :     3.436035  s :     3.436035
      pz      :     1.270420  p :     4.603819
      px      :     1.678253
      py      :     1.655147
      dz2     :     0.008387  d :     0.032127
      dxz     :     0.008305
      dyz     :     0.008592
      dx2y2   :     0.002848
      dxy     :     0.003996
 46 C s       :     2.848175  s :     2.848175
      pz      :     0.784718  p :     2.951792
      px      :     1.079524
      py      :     1.087550
      dz2     :     0.037769  d :     0.115522
      dxz     :     0.024176
      dyz     :     0.025474
      dx2y2   :     0.018893
      dxy     :     0.009210
 47 H s       :     0.907782  s :     0.907782
      pz      :     0.010393  p :     0.067827
      px      :     0.042864
      py      :     0.014570
 48 H s       :     0.907720  s :     0.907720
      pz      :     0.012638  p :     0.067868
      px      :     0.014426
      py      :     0.040804
 49 H s       :     0.901041  s :     0.901041
      pz      :     0.015503  p :     0.065609
      px      :     0.023641
      py      :     0.026465


                      *****************************
                      * MAYER POPULATION ANALYSIS *
                      *****************************

  NA   - Mulliken gross atomic population
  ZA   - Total nuclear charge
  QA   - Mulliken gross atomic charge
  VA   - Mayer's total valence
  BVA  - Mayer's bonded valence
  FA   - Mayer's free valence

  ATOM       NA         ZA         QA         VA         BVA        FA
  0 H      1.0075     1.0000    -0.0075     1.0197     1.0197    -0.0000
  1 C      6.0748     6.0000    -0.0748     3.7442     3.7442    -0.0000
  2 C      5.8228     6.0000     0.1772     3.8621     3.8621     0.0000
  3 O      8.2359     8.0000    -0.2359     2.2784     2.2784    -0.0000
  4 C      5.7459     6.0000     0.2541     4.1802     4.1802    -0.0000
  5 O      8.2213     8.0000    -0.2213     2.3021     2.3021    -0.0000
  6 C      6.0718     6.0000    -0.0718     3.7075     3.7075     0.0000
  7 C      5.9883     6.0000     0.0117     3.7708     3.7708     0.0000
  8 H      1.0001     1.0000    -0.0001     1.0325     1.0325     0.0000
  9 C      5.9874     6.0000     0.0126     3.6388     3.6388    -0.0000
 10 C      6.0143     6.0000    -0.0143     4.2491     4.2491    -0.0000
 11 O      8.2202     8.0000    -0.2202     2.2950     2.2950     0.0000
 12 C      5.9274     6.0000     0.0726     3.8965     3.8965     0.0000
 13 H      0.9400     1.0000     0.0600     0.9978     0.9978    -0.0000
 14 H      0.9389     1.0000     0.0611     0.9977     0.9977    -0.0000
 15 H      0.9768     1.0000     0.0232     1.0183     1.0183     0.0000
 16 C      6.0303     6.0000    -0.0303     3.7774     3.7774     0.0000
 17 H      1.0163     1.0000    -0.0163     1.0371     1.0371    -0.0000
 18 C      5.8588     6.0000     0.1412     3.8701     3.8701    -0.0000
 19 N      7.0313     7.0000    -0.0313     3.3403     3.3403     0.0000
 20 H      0.8364     1.0000     0.1636     1.0028     1.0028     0.0000
 21 C      5.9681     6.0000     0.0319     4.0845     4.0845    -0.0000
 22 S     16.4088    16.0000    -0.4088     1.8134     1.8134    -0.0000
 23 N      7.1042     7.0000    -0.1042     3.3641     3.3641     0.0000
 24 H      0.8581     1.0000     0.1419     1.0240     1.0240     0.0000
 25 C      5.9390     6.0000     0.0610     4.0510     4.0510     0.0000
 26 H      0.9498     1.0000     0.0502     0.9786     0.9786    -0.0000
 27 H      0.9456     1.0000     0.0544     0.9723     0.9723    -0.0000
 28 C      6.0328     6.0000    -0.0328     4.0431     4.0431    -0.0000
 29 H      0.9597     1.0000     0.0403     0.9901     0.9901     0.0000
 30 H      0.9611     1.0000     0.0389     0.9910     0.9910    -0.0000
 31 H      0.9611     1.0000     0.0389     0.9914     0.9914    -0.0000
 32 C      6.0079     6.0000    -0.0079     3.8022     3.8022     0.0000
 33 H      1.0323     1.0000    -0.0323     1.0838     1.0838     0.0000
 34 C      6.0221     6.0000    -0.0221     3.7831     3.7831    -0.0000
 35 H      1.0067     1.0000    -0.0067     1.0228     1.0228    -0.0000
 36 C      5.8216     6.0000     0.1784     3.8232     3.8232    -0.0000
 37 O      8.2158     8.0000    -0.2158     2.2412     2.2412    -0.0000
 38 C      5.5258     6.0000     0.4742     4.6888     4.6888    -0.0000
 39 F      9.1624     9.0000    -0.1624     1.1950     1.1950    -0.0000
 40 F      9.1354     9.0000    -0.1354     1.2177     1.2177    -0.0000
 41 F      9.1607     9.0000    -0.1607     1.1966     1.1966    -0.0000
 42 C      6.0598     6.0000    -0.0598     3.7334     3.7334    -0.0000
 43 H      1.0052     1.0000    -0.0052     1.0396     1.0396     0.0000
 44 C      5.8165     6.0000     0.1835     3.9022     3.9022    -0.0000
 45 O      8.2938     8.0000    -0.2938     2.2690     2.2690    -0.0000
 46 C      5.8372     6.0000     0.1628     3.9070     3.9070    -0.0000
 47 H      0.9551     1.0000     0.0449     0.9896     0.9896     0.0000
 48 H      0.9550     1.0000     0.0450     0.9899     0.9899     0.0000
 49 H      0.9518     1.0000     0.0482     0.9915     0.9915    -0.0000

  Mayer bond orders larger than 0.100000
B(  0-H ,  1-C ) :   1.0076 B(  1-C ,  2-C ) :   1.3298 B(  1-C , 44-C ) :   1.2667 
B(  2-C ,  3-O ) :   0.9671 B(  2-C , 34-C ) :   1.3325 B(  3-O ,  4-C ) :   1.1469 
B(  4-C ,  5-O ) :   2.0499 B(  4-C ,  6-C ) :   0.9368 B(  6-C ,  7-C ) :   1.3175 
B(  6-C , 32-C ) :   1.3479 B(  7-C ,  8-H ) :   0.9844 B(  7-C ,  9-C ) :   1.3175 
B(  9-C , 10-C ) :   0.9183 B(  9-C , 16-C ) :   1.3482 B( 10-C , 11-O ) :   2.1047 
B( 10-C , 12-C ) :   1.1025 B( 12-C , 13-H ) :   0.9254 B( 12-C , 14-H ) :   0.9236 
B( 12-C , 15-H ) :   0.9373 B( 16-C , 17-H ) :   0.9892 B( 16-C , 18-C ) :   1.2948 
B( 18-C , 19-N ) :   1.1052 B( 18-C , 32-C ) :   1.2979 B( 19-N , 20-H ) :   0.8828 
B( 19-N , 21-C ) :   1.2068 B( 21-C , 22-S ) :   1.4369 B( 21-C , 23-N ) :   1.3242 
B( 23-N , 24-H ) :   0.9077 B( 23-N , 25-C ) :   0.9682 B( 25-C , 26-H ) :   0.9373 
B( 25-C , 27-H ) :   0.9338 B( 25-C , 28-C ) :   1.1207 B( 28-C , 29-H ) :   0.9666 
B( 28-C , 30-H ) :   0.9669 B( 28-C , 31-H ) :   0.9591 B( 32-C , 33-H ) :   0.9705 
B( 34-C , 35-H ) :   1.0063 B( 34-C , 36-C ) :   1.3180 B( 36-C , 37-O ) :   0.9684 
B( 36-C , 42-C ) :   1.3360 B( 37-O , 38-C ) :   1.1942 B( 38-C , 39-F ) :   1.1215 
B( 38-C , 40-F ) :   1.1686 B( 38-C , 41-F ) :   1.1247 B( 42-C , 43-H ) :   0.9947 
B( 42-C , 44-C ) :   1.2842 B( 44-C , 45-O ) :   1.1776 B( 45-O , 46-C ) :   0.9417 
B( 46-C , 47-H ) :   0.9656 B( 46-C , 48-H ) :   0.9654 B( 46-C , 49-H ) :   0.9731 



------------------
HIRSHFELD ANALYSIS
------------------

Total integrated alpha density =    117.999856069
Total integrated beta density  =    117.999856069

  ATOM     CHARGE      SPIN    
   0 H    0.048319    0.000000
   1 C   -0.072764    0.000000
   2 C    0.079031    0.000000
   3 O   -0.084824    0.000000
   4 C    0.214087    0.000000
   5 O   -0.274343    0.000000
   6 C   -0.017110    0.000000
   7 C   -0.026732    0.000000
   8 H    0.042124    0.000000
   9 C   -0.015620    0.000000
  10 C    0.164767    0.000000
  11 O   -0.273026    0.000000
  12 C   -0.070894    0.000000
  13 H    0.051082    0.000000
  14 H    0.051627    0.000000
  15 H    0.038159    0.000000
  16 C   -0.022820    0.000000
  17 H    0.043329    0.000000
  18 C    0.061361    0.000000
  19 N   -0.061076    0.000000
  20 H    0.144724    0.000000
  21 C    0.120196    0.000000
  22 S   -0.389350    0.000000
  23 N   -0.070914    0.000000
  24 H    0.135436    0.000000
  25 C    0.033728    0.000000
  26 H    0.043031    0.000000
  27 H    0.042890    0.000000
  28 C   -0.057470    0.000000
  29 H    0.036485    0.000000
  30 H    0.035593    0.000000
  31 H    0.041582    0.000000
  32 C   -0.033363    0.000000
  33 H    0.016204    0.000000
  34 C   -0.072197    0.000000
  35 H    0.047167    0.000000
  36 C    0.075558    0.000000
  37 O   -0.123959    0.000000
  38 C    0.336455    0.000000
  39 F   -0.110906    0.000000
  40 F   -0.105188    0.000000
  41 F   -0.109470    0.000000
  42 C   -0.079966    0.000000
  43 H    0.037884    0.000000
  44 C    0.085095    0.000000
  45 O   -0.123551    0.000000
  46 C    0.032154    0.000000
  47 H    0.043386    0.000000
  48 H    0.043351    0.000000
  49 H    0.051025    0.000000

  TOTAL   0.000288    0.000000

-------
TIMINGS
-------

Total SCF time: 0 days 0 hours 4 min 41 sec 

Total time                  ....     281.533 sec
Sum of individual times     ....     254.897 sec  ( 90.5%)

Fock matrix formation       ....     239.073 sec  ( 84.9%)
  Split-RI-J                ....      52.478 sec  ( 22.0% of F)
  XC integration            ....      79.108 sec  ( 33.1% of F)
    Basis function eval.    ....      20.010 sec  ( 25.3% of XC)
    Density eval.           ....      11.904 sec  ( 15.0% of XC)
    XC-Functional eval.     ....       4.490 sec  (  5.7% of XC)
    XC-Potential eval.      ....       8.385 sec  ( 10.6% of XC)
Diagonalization             ....       0.162 sec  (  0.1%)
Density matrix formation    ....       0.127 sec  (  0.0%)
Population analysis         ....       5.288 sec  (  1.9%)
Initial guess               ....       0.098 sec  (  0.0%)
Orbital Transformation      ....       0.000 sec  (  0.0%)
Orbital Orthonormalization  ....       0.079 sec  (  0.0%)
DIIS solution               ....       0.045 sec  (  0.0%)
SOSCF solution              ....       3.810 sec  (  1.4%)
Grid generation             ....       6.293 sec  (  2.2%)

Maximum memory used throughout the entire SCF-calculation: 235.1 MB


-------------------------------------------------------------------------------
                          DFT DISPERSION CORRECTION                            
                                                                               
                              DFTD3 V3.1  Rev 1                                
                          USING Becke-Johnson damping                          
-------------------------------------------------------------------------------
The revPBE functional is recognized
Active option DFTDOPT                   ...         4   

molecular C6(AA) [au] = 29896.997376 


            DFT-D V3
 parameters
 s6 scaling factor         :     1.0000 
 a1 scaling factor         :     0.5238 
 s8 scaling factor         :     2.3550 
 a2 scaling factor         :     3.5016 
 ad hoc parameters k1-k3   :    16.0000     1.3333    -4.0000 

 Edisp/kcal,au: -95.539570477120  -0.152251980623 
 E6   /kcal   : -38.852764488 
 E8   /kcal   : -56.686805989 
 % E8         :  59.333327234 

-------------------------   ----------------
Dispersion correction           -0.152251981
-------------------------   ----------------


-------------------------   --------------------
FINAL SINGLE POINT ENERGY     -1955.326979503491
-------------------------   --------------------


                            ***************************************
                            *     ORCA property calculations      *
                            ***************************************

                                    ---------------------
                                    Active property flags
                                    ---------------------
   (+) Dipole Moment


------------------------------------------------------------------------------
                       ORCA ELECTRIC PROPERTIES CALCULATION
------------------------------------------------------------------------------

Dipole Moment Calculation                       ... on
Quadrupole Moment Calculation                   ... off
Polarizability Calculation                      ... off
GBWName                                         ... /home/sk77/PycharmProjects/omg_database_publication/run_calculation/calculation_results/pareto_greedy/0/reaction_10005258/opt_n_1/conformer_3/property_cosmo.gbw
Electron density                                ... /home/sk77/PycharmProjects/omg_database_publication/run_calculation/calculation_results/pareto_greedy/0/reaction_10005258/opt_n_1/conformer_3/property_cosmo.scfp
The origin for moment calculation is the CENTER OF MASS  = ( 0.974069, -1.247068  0.884607)

-------------
DIPOLE MOMENT
-------------
                                X             Y             Z
Electronic contribution:     38.01981     -35.83415      24.61238
Nuclear contribution   :    -38.69343      38.78458     -26.54859
                        -----------------------------------------
Total Dipole Moment    :     -0.67363       2.95043      -1.93621
                        -----------------------------------------
Magnitude (a.u.)       :      3.59273
Magnitude (Debye)      :      9.13200



--------------------
Rotational spectrum 
--------------------
 
Rotational constants in cm-1:     0.006168     0.001661     0.001401 
Rotational constants in MHz :   184.921959    49.792731    42.014525 

 Dipole components along the rotational axes: 
x,y,z [a.u.] :     2.580004     2.277862    -1.030849 
x,y,z [Debye]:     6.557848     5.789866    -2.620211 

 
------------------------------------------------------------------------------
                      ORCA CHELPG CHARGES GENERATION
------------------------------------------------------------------------------

GBW file                           ... /home/sk77/PycharmProjects/omg_database_publication/run_calculation/calculation_results/pareto_greedy/0/reaction_10005258/opt_n_1/conformer_3/property_cosmo.gbw
Density                            ... /home/sk77/PycharmProjects/omg_database_publication/run_calculation/calculation_results/pareto_greedy/0/reaction_10005258/opt_n_1/conformer_3/property_cosmo.scfp

Reading the GBW file               ... done
Reading the density                ... done

Grid spacing                       ...     0.300000
Point Cut-Off                      ...     2.800000
Van-der-Waals Radii                ...        COSMO
Total charge                       ...            0


Number of points X direction       ...           64
Number of points Y direction       ...           54
Number of points Z direction       ...           49
Maximum number of possible points  ...       169344
Final number of points             ...        26740



Timings for individual modules:

Sum of individual times         ...      310.781 sec (=   5.180 min)
GTO integral calculation        ...        7.515 sec (=   0.125 min)   2.4 %
SCF iterations                  ...      281.803 sec (=   4.697 min)  90.7 %
CHELPG charge generation        ...       21.463 sec (=   0.358 min)   6.9 %



                             ****ORCA TERMINATED NORMALLY****
TOTAL RUN TIME: 0 days 0 hours 36 minutes 58 seconds 971 msec
