50
 energy: -96.272366319324 gnorm: 0.000293331337 xtb: 6.6.1 (8d0f1dd)
H            2.01359869615392       -2.92742759525186       -2.34354488458255
C            2.32708550225496       -3.22086939039814       -1.35642030673507
C            1.87060098255914       -2.54022583510104       -0.24572476435396
O            1.04786521913107       -1.45002216961380       -0.47419398581713
C           -0.05104611223655       -1.22970410261745        0.26655363084110
O           -0.43334564851475       -1.96435235620096        1.14993266217084
C           -0.75552871097190        0.00977216086301       -0.14481357731216
C           -0.34124207958728        0.75931211113544       -1.24317423408792
H            0.52120411722090        0.43960065242404       -1.80028709034006
C           -1.06461578563232        1.89170786929901       -1.60256052260604
C           -0.70972675908519        2.73824162333068       -2.77999237715821
O           -1.37857879696343        3.71469880138079       -3.06631883458370
C            0.49606552132230        2.34134726079527       -3.57797761585031
H            1.37586440623528        2.33545416393994       -2.93996781859595
H            0.35674081368189        1.34276604516679       -3.98280741308199
H            0.63852619749979        3.04693050074085       -4.39174525184152
C           -2.17912147621663        2.27478394663655       -0.85456391082614
H           -2.74234479244258        3.12214035090185       -1.21371302791177
C           -2.57346531601119        1.55653209786360        0.27236635357808
N           -3.67367625182622        1.87672806458477        1.05907409968295
H           -4.05972689177611        1.10423425994095        1.58784340579803
C           -4.30242679464062        3.05787144803904        1.31488859382610
S           -5.72701031420692        2.97344921408982        2.19933735352550
N           -3.76693547850184        4.19795942529615        0.89036473565854
H           -2.83945792819211        4.17360246323930        0.48872660611741
C           -4.30593285365996        5.51943800564687        1.11771474977521
H           -4.55096204584112        5.96734253276003        0.15001789643328
H           -5.22484816386094        5.40879675295219        1.69572947371800
C           -3.30111852946513        6.39593437536228        1.85695232181707
H           -3.06183671382597        5.96271801249991        2.82461780097426
H           -2.38718807617073        6.49493964748154        1.27714872081353
H           -3.72523436432841        7.38253294391214        2.01255635862974
C           -1.85869020692119        0.40341658198472        0.60317748105024
H           -2.15500327566636       -0.20187266964903        1.44653723703410
C            2.26843045620055       -2.89632986456661        1.04165221230574
H            1.89813628336007       -2.34322024920121        1.88774113193841
C            3.12769073683725       -3.96939077706047        1.16817189132298
O            3.61145527121194       -4.43720576391029        2.41192404189321
C            3.20325346736938       -3.90071501099870        3.53496554679622
F            1.87804708506998       -3.98457771284210        3.75565198295302
F            3.79119211209904       -4.52864455564756        4.55389292396593
F            3.50497485823693       -2.59404701632171        3.67984733413952
C            3.60096274631741       -4.67744901153630        0.07520005894867
H            4.26721681586088       -5.50190987828615        0.25535778637045
C            3.20193276439578       -4.30175643086477       -1.20560460962293
O            3.59486045005120       -4.90832579796943       -2.33868825063776
C            4.47715204429316       -6.01793423753154       -2.25308904073951
H            5.42386844002345       -5.73082016163348       -1.79170254144576
H            4.02345966337051       -6.83628890843706       -1.69076915872932
H            4.64886871579694       -6.32918181663136       -3.28026517520640
