
                                 *****************
                                 * O   R   C   A *
                                 *****************

                                            #,                                       
                                            ###                                      
                                            ####                                     
                                            #####                                    
                                            ######                                   
                                           ########,                                 
                                     ,,################,,,,,                         
                               ,,#################################,,                 
                          ,,##########################################,,             
                       ,#########################################, ''#####,          
                    ,#############################################,,   '####,        
                  ,##################################################,,,,####,       
                ,###########''''           ''''###############################       
              ,#####''   ,,,,##########,,,,          '''####'''          '####       
            ,##' ,,,,###########################,,,                        '##       
           ' ,,###''''                  '''############,,,                           
         ,,##''                                '''############,,,,        ,,,,,,###''
      ,#''                                            '''#######################'''  
     '                                                          ''''####''''         
             ,#######,   #######,   ,#######,      ##                                
            ,#'     '#,  ##    ##  ,#'     '#,    #''#        ######   ,####,        
            ##       ##  ##   ,#'  ##            #'  '#       #        #'  '#        
            ##       ##  #######   ##           ,######,      #####,   #    #        
            '#,     ,#'  ##    ##  '#,     ,#' ,#      #,         ##   #,  ,#        
             '#######'   ##     ##  '#######'  #'      '#     #####' # '####'        



                  #######################################################
                  #                        -***-                        #
                  #          Department of theory and spectroscopy      #
                  #    Directorship and core code : Frank Neese         #
                  #        Max Planck Institute fuer Kohlenforschung    #
                  #                Kaiser Wilhelm Platz 1               #
                  #                 D-45470 Muelheim/Ruhr               #
                  #                      Germany                        #
                  #                                                     #
                  #                  All rights reserved                #
                  #                        -***-                        #
                  #######################################################


                         Program Version 5.0.3 -  RELEASE  -


 With contributions from (in alphabetic order):
   Daniel Aravena         : Magnetic Suceptibility
   Michael Atanasov       : Ab Initio Ligand Field Theory (pilot matlab implementation)
   Alexander A. Auer      : GIAO ZORA, VPT2 properties, NMR spectrum
   Ute Becker             : Parallelization
   Giovanni Bistoni       : ED, misc. LED, open-shell LED, HFLD
   Martin Brehm           : Molecular dynamics
   Dmytro Bykov           : SCF Hessian
   Vijay G. Chilkuri      : MRCI spin determinant printing, contributions to CSF-ICE
   Dipayan Datta          : RHF DLPNO-CCSD density
   Achintya Kumar Dutta   : EOM-CC, STEOM-CC
   Dmitry Ganyushin       : Spin-Orbit,Spin-Spin,Magnetic field MRCI
   Miquel Garcia          : C-PCM and meta-GGA Hessian, CC/C-PCM, Gaussian charge scheme
   Yang Guo               : DLPNO-NEVPT2, F12-NEVPT2, CIM, IAO-localization
   Andreas Hansen         : Spin unrestricted coupled pair/coupled cluster methods
   Benjamin Helmich-Paris : MC-RPA, TRAH-SCF, COSX integrals
   Lee Huntington         : MR-EOM, pCC
   Robert Izsak           : Overlap fitted RIJCOSX, COSX-SCS-MP3, EOM
   Marcus Kettner         : VPT2
   Christian Kollmar      : KDIIS, OOCD, Brueckner-CCSD(T), CCSD density, CASPT2, CASPT2-K
   Simone Kossmann        : Meta GGA functionals, TD-DFT gradient, OOMP2, MP2 Hessian
   Martin Krupicka        : Initial AUTO-CI
   Lucas Lang             : DCDCAS
   Marvin Lechner         : AUTO-CI (C++ implementation), FIC-MRCC
   Dagmar Lenk            : GEPOL surface, SMD
   Dimitrios Liakos       : Extrapolation schemes; Compound Job, initial MDCI parallelization
   Dimitrios Manganas     : Further ROCIS development; embedding schemes
   Dimitrios Pantazis     : SARC Basis sets
   Anastasios Papadopoulos: AUTO-CI, single reference methods and gradients
   Taras Petrenko         : DFT Hessian,TD-DFT gradient, ASA, ECA, R-Raman, ABS, FL, XAS/XES, NRVS
   Peter Pinski           : DLPNO-MP2, DLPNO-MP2 Gradient
   Christoph Reimann      : Effective Core Potentials
   Marius Retegan         : Local ZFS, SOC
   Christoph Riplinger    : Optimizer, TS searches, QM/MM, DLPNO-CCSD(T), (RO)-DLPNO pert. Triples
   Tobias Risthaus        : Range-separated hybrids, TD-DFT gradient, RPA, STAB
   Michael Roemelt        : Original ROCIS implementation
   Masaaki Saitow         : Open-shell DLPNO-CCSD energy and density
   Barbara Sandhoefer     : DKH picture change effects
   Avijit Sen             : IP-ROCIS
   Kantharuban Sivalingam : CASSCF convergence, NEVPT2, FIC-MRCI
   Bernardo de Souza      : ESD, SOC TD-DFT
   Georgi Stoychev        : AutoAux, RI-MP2 NMR, DLPNO-MP2 response
   Willem Van den Heuvel  : Paramagnetic NMR
   Boris Wezisla          : Elementary symmetry handling
   Frank Wennmohs         : Technical directorship


 We gratefully acknowledge several colleagues who have allowed us to
 interface, adapt or use parts of their codes:
   Stefan Grimme, W. Hujo, H. Kruse, P. Pracht,  : VdW corrections, initial TS optimization,
                  C. Bannwarth, S. Ehlert          DFT functionals, gCP, sTDA/sTD-DF
   Ed Valeev, F. Pavosevic, A. Kumar             : LibInt (2-el integral package), F12 methods
   Garnet Chan, S. Sharma, J. Yang, R. Olivares  : DMRG
   Ulf Ekstrom                                   : XCFun DFT Library
   Mihaly Kallay                                 : mrcc  (arbitrary order and MRCC methods)
   Jiri Pittner, Ondrej Demel                    : Mk-CCSD
   Frank Weinhold                                : gennbo (NPA and NBO analysis)
   Christopher J. Cramer and Donald G. Truhlar   : smd solvation model
   Lars Goerigk                                  : TD-DFT with DH, B97 family of functionals
   V. Asgeirsson, H. Jonsson                     : NEB implementation
   FAccTs GmbH                                   : IRC, NEB, NEB-TS, DLPNO-Multilevel, CI-OPT
                                                   MM, QMMM, 2- and 3-layer-ONIOM, Crystal-QMMM,
                                                   LR-CPCM, SF, NACMEs, symmetry and pop. for TD-DFT,
                                                   nearIR, NL-DFT gradient (VV10), updates on ESD,
                                                   ML-optimized integration grids
   S Lehtola, MJT Oliveira, MAL Marques          : LibXC Library
   Liviu Ungur et al                             : ANISO software


 Your calculation uses the libint2 library for the computation of 2-el integrals
 For citations please refer to: http://libint.valeyev.net

 Your ORCA version has been built with support for libXC version: 5.1.0
 For citations please refer to: https://tddft.org/programs/libxc/

 This ORCA versions uses:
   CBLAS   interface :  Fast vector & matrix operations
   LAPACKE interface :  Fast linear algebra routines
   SCALAPACK package :  Parallel linear algebra routines
   Shared memory     :  Shared parallel matrices
   BLAS/LAPACK       :  OpenBLAS 0.3.15  USE64BITINT DYNAMIC_ARCH NO_AFFINITY SkylakeX SINGLE_THREADED
        Core in use  :  SkylakeX
   Copyright (c) 2011-2014, The OpenBLAS Project




***************************************
The coordinates will be read from file: /home/sk77/PycharmProjects/omg_database_publication/run_calculation/calculation_results/pareto_greedy/0/reaction_10005258/opt_n_1/conformer_4/geometry.xtbopt.xyz
***************************************


Your calculation utilizes the atom-pairwise dispersion correction
with the Becke-Johnson damping scheme (D3BJ)
Cite in your paper:
S.Grimme, S.Ehrlich, L.Goerigk, J Comput Chem, (2011), 32, 1456–1465 
S.Grimme, J.Antony, S.Ehrlich and H.Krieg, J.Chem.Phys., 132, (2010), 154104 
   

================================================================================

----- Orbital basis set information -----
Your calculation utilizes the basis: def2-SVP
   F. Weigend and R. Ahlrichs, Phys. Chem. Chem. Phys. 7, 3297 (2005).

----- AuxJ basis set information -----
Your calculation utilizes the auxiliary basis: def2/J
   F. Weigend, Phys. Chem. Chem. Phys. 8, 1057 (2006).

================================================================================
                                        WARNINGS
                       Please study these warnings very carefully!
================================================================================

INFO   : Checking CIS options ...

WARNING: CIS/ROCIS methods need fully converged wavefunctions
  ===> : Setting SCFConvForced true
         You can overwrite this default with %scf ConvForced false 


INFO   : the flag for use of the SHARK integral package has been found!



***************************************
The coordinates will be read from file: /home/sk77/PycharmProjects/omg_database_publication/run_calculation/calculation_results/pareto_greedy/0/reaction_10005258/opt_n_1/conformer_4/geometry.xtbopt.xyz
***************************************


Your calculation utilizes the atom-pairwise dispersion correction
with the Becke-Johnson damping scheme (D3BJ)
Cite in your paper:
S.Grimme, S.Ehrlich, L.Goerigk, J Comput Chem, (2011), 32, 1456–1465 
S.Grimme, J.Antony, S.Ehrlich and H.Krieg, J.Chem.Phys., 132, (2010), 154104 
   

================================================================================

----- Orbital basis set information -----
Your calculation utilizes the basis: def2-SVP
   F. Weigend and R. Ahlrichs, Phys. Chem. Chem. Phys. 7, 3297 (2005).

----- AuxJ basis set information -----
Your calculation utilizes the auxiliary basis: def2/J
   F. Weigend, Phys. Chem. Chem. Phys. 8, 1057 (2006).

================================================================================
                                        WARNINGS
                       Please study these warnings very carefully!
================================================================================


INFO   : the flag for use of the SHARK integral package has been found!

================================================================================
                                       INPUT FILE
================================================================================
NAME = /home/sk77/PycharmProjects/omg_database_publication/run_calculation/calculation_results/pareto_greedy/0/reaction_10005258/opt_n_1/conformer_4/property.inp
|  1> ! revPBE def2-SVP def2/J CPCMC(Toluene) Hirshfeld CHELPG RIJONX D3 Energy
|  2> %pal
|  3> nprocs 1
|  4> end
|  5> %maxcore 3000
|  6> %elprop
|  7> Polar 1
|  8> Quadrupole True
|  9> end
| 10> %TDDFT
| 11> NRoots 15
| 12> Triplets True
| 13> end
| 14> * xyzfile 0 1 /home/sk77/PycharmProjects/omg_database_publication/run_calculation/calculation_results/pareto_greedy/0/reaction_10005258/opt_n_1/conformer_4/geometry.xtbopt.xyz
| 15> 
| 16> # for cosmo solvent -> Flory Huggins
| 17> $new_job
| 18> ! revPBE def2-SVP def2/J CPCMC Hirshfeld CHELPG RIJONX D3 Energy
| 19> %base "/home/sk77/PycharmProjects/omg_database_publication/run_calculation/calculation_results/pareto_greedy/0/reaction_10005258/opt_n_1/conformer_4/property_cosmo"
| 20> %pal
| 21> nprocs 1
| 22> end
| 23> %maxcore 3000
| 24> * xyzfile 0 1 /home/sk77/PycharmProjects/omg_database_publication/run_calculation/calculation_results/pareto_greedy/0/reaction_10005258/opt_n_1/conformer_4/geometry.xtbopt.xyz
| 25> 
| 26>                          ****END OF INPUT****
================================================================================


                 $$$$$$$$$$$$$$$$$$$$$$$$$$$$$$$$$$$$$$$$$$$$$$ 
                 $ THERE ARE  2 JOBS TO BE PROCESSED THIS RUN $
                 $$$$$$$$$$$$$$$$$$$$$$$$$$$$$$$$$$$$$$$$$$$$$$ 




                 $$$$$$$$$$$$$$$$  JOB NUMBER  1 $$$$$$$$$$$$$$


                       ****************************
                       * Single Point Calculation *
                       ****************************

---------------------------------
CARTESIAN COORDINATES (ANGSTROEM)
---------------------------------
  H      2.013599   -2.927428   -2.343545
  C      2.327086   -3.220869   -1.356420
  C      1.870601   -2.540226   -0.245725
  O      1.047865   -1.450022   -0.474194
  C     -0.051046   -1.229704    0.266554
  O     -0.433346   -1.964352    1.149933
  C     -0.755529    0.009772   -0.144814
  C     -0.341242    0.759312   -1.243174
  H      0.521204    0.439601   -1.800287
  C     -1.064616    1.891708   -1.602561
  C     -0.709727    2.738242   -2.779992
  O     -1.378579    3.714699   -3.066319
  C      0.496066    2.341347   -3.577978
  H      1.375864    2.335454   -2.939968
  H      0.356741    1.342766   -3.982807
  H      0.638526    3.046931   -4.391745
  C     -2.179121    2.274784   -0.854564
  H     -2.742345    3.122140   -1.213713
  C     -2.573465    1.556532    0.272366
  N     -3.673676    1.876728    1.059074
  H     -4.059727    1.104234    1.587843
  C     -4.302427    3.057871    1.314889
  S     -5.727010    2.973449    2.199337
  N     -3.766935    4.197959    0.890365
  H     -2.839458    4.173602    0.488727
  C     -4.305933    5.519438    1.117715
  H     -4.550962    5.967343    0.150018
  H     -5.224848    5.408797    1.695729
  C     -3.301119    6.395934    1.856952
  H     -3.061837    5.962718    2.824618
  H     -2.387188    6.494940    1.277149
  H     -3.725234    7.382533    2.012556
  C     -1.858690    0.403417    0.603177
  H     -2.155003   -0.201873    1.446537
  C      2.268430   -2.896330    1.041652
  H      1.898136   -2.343220    1.887741
  C      3.127691   -3.969391    1.168172
  O      3.611455   -4.437206    2.411924
  C      3.203253   -3.900715    3.534966
  F      1.878047   -3.984578    3.755652
  F      3.791192   -4.528645    4.553893
  F      3.504975   -2.594047    3.679847
  C      3.600963   -4.677449    0.075200
  H      4.267217   -5.501910    0.255358
  C      3.201933   -4.301756   -1.205605
  O      3.594860   -4.908326   -2.338688
  C      4.477152   -6.017934   -2.253089
  H      5.423868   -5.730820   -1.791703
  H      4.023460   -6.836289   -1.690769
  H      4.648869   -6.329182   -3.280265

----------------------------
CARTESIAN COORDINATES (A.U.)
----------------------------
  NO LB      ZA    FRAG     MASS         X           Y           Z
   0 H     1.0000    0     1.008    3.805150   -5.532036   -4.428658
   1 C     6.0000    0    12.011    4.397554   -6.086561   -2.563263
   2 C     6.0000    0    12.011    3.534924   -4.800331   -0.464353
   3 O     8.0000    0    15.999    1.980178   -2.740145   -0.896097
   4 C     6.0000    0    12.011   -0.096463   -2.323804    0.503713
   5 O     8.0000    0    15.999   -0.818905   -3.712088    2.173058
   6 C     6.0000    0    12.011   -1.427742    0.018467   -0.273658
   7 C     6.0000    0    12.011   -0.644854    1.434892   -2.349259
   8 H     1.0000    0     1.008    0.984933    0.830725   -3.402050
   9 C     6.0000    0    12.011   -2.011832    3.574810   -3.028401
  10 C     6.0000    0    12.011   -1.341189    5.174527   -5.253424
  11 O     8.0000    0    15.999   -2.605136    7.019763   -5.794503
  12 C     6.0000    0    12.011    0.937428    4.424505   -6.761398
  13 H     1.0000    0     1.008    2.600007    4.413369   -5.555734
  14 H     1.0000    0     1.008    0.674142    2.537460   -7.526415
  15 H     1.0000    0     1.008    1.206640    5.757864   -8.299196
  16 C     6.0000    0    12.011   -4.117943    4.298719   -1.614892
  17 H     1.0000    0     1.008   -5.182281    5.899990   -2.293585
  18 C     6.0000    0    12.011   -4.863145    2.941419    0.514698
  19 N     7.0000    0    14.007   -6.942242    3.546502    2.001360
  20 H     1.0000    0     1.008   -7.671772    2.086700    3.000589
  21 C     6.0000    0    12.011   -8.130408    5.778540    2.484779
  22 S    16.0000    0    32.060  -10.822481    5.619005    4.156145
  23 N     7.0000    0    14.007   -7.118476    7.932994    1.682546
  24 H     1.0000    0     1.008   -5.365798    7.886966    0.923559
  25 C     6.0000    0    12.011   -8.137034   10.430226    2.112175
  26 H     1.0000    0     1.008   -8.600072   11.276643    0.283493
  27 H     1.0000    0     1.008   -9.873532   10.221145    3.204464
  28 C     6.0000    0    12.011   -6.238210   12.086564    3.509131
  29 H     1.0000    0     1.008   -5.786033   11.267904    5.337754
  30 H     1.0000    0     1.008   -4.511132   12.273657    2.413461
  31 H     1.0000    0     1.008   -7.039673   13.950965    3.803180
  32 C     6.0000    0    12.011   -3.512415    0.762347    1.139840
  33 H     1.0000    0     1.008   -4.072366   -0.381484    2.733559
  34 C     6.0000    0    12.011    4.286712   -5.473270    1.968437
  35 H     1.0000    0     1.008    3.586958   -4.428045    3.567314
  36 C     6.0000    0    12.011    5.910479   -7.501061    2.207525
  37 O     8.0000    0    15.999    6.824661   -8.385104    4.557876
  38 C     6.0000    0    12.011    6.053272   -7.371283    6.680117
  39 F     9.0000    0    18.998    3.548995   -7.529761    7.097154
  40 F     9.0000    0    18.998    7.164315   -8.557898    8.605610
  41 F     9.0000    0    18.998    6.623443   -4.902038    6.953904
  42 C     6.0000    0    12.011    6.804833   -8.839098    0.142108
  43 H     1.0000    0     1.008    8.063871  -10.397103    0.482556
  44 C     6.0000    0    12.011    6.050776   -8.129142   -2.278263
  45 O     8.0000    0    15.999    6.793302   -9.275392   -4.419480
  46 C     6.0000    0    12.011    8.460591  -11.372248   -4.257721
  47 H     1.0000    0     1.008   10.249626  -10.829681   -3.385827
  48 H     1.0000    0     1.008    7.603237  -12.918714   -3.195091
  49 H     1.0000    0     1.008    8.785089  -11.960420   -6.198803

--------------------------------
INTERNAL COORDINATES (ANGSTROEM)
--------------------------------
 H      0   0   0     0.000000000000     0.00000000     0.00000000
 C      1   0   0     1.076474336400     0.00000000     0.00000000
 C      2   1   0     1.380325452187   120.47405262     0.00000000
 O      3   2   1     1.384787476049   116.86763043   357.53402071
 C      4   3   2     1.343448248515   121.60899988   137.28460943
 O      5   4   3     1.210875511737   124.12549172   357.76450795
 C      5   4   3     1.483853132758   111.86840700   178.84620049
 C      7   5   4     1.392781275847   121.79863978     4.65365396
 H      8   7   5     1.075362075685   119.15116148   359.09415577
 C      8   7   5     1.390952255140   119.15599250   178.20429957
 C     10   8   7     1.492953914223   122.80395466   181.25069383
 O     11  10   8     1.217708712854   120.63431326   179.29514108
 C     11  10   8     1.499413418532   117.43830975   358.94284134
 H     13  11  10     1.086801411426   109.87759452   301.03482848
 H     13  11  10     1.086491133462   109.78299532    60.30359246
 H     13  11  10     1.086443978370   109.40039245   180.54777662
 C     10   8   7     1.395839943048   120.01379316     0.89369754
 H     17  10   8     1.078990949032   116.99661639   183.91881836
 C     17  10   8     1.393328605563   121.19316136     1.29667534
 N     19  17  10     1.389927565801   124.26797899   180.29205914
 H     20  19  17     1.012609872512   114.93527891   156.28853285
 C     20  19  17     1.362302460095   132.17152460   332.33281703
 S     22  20  19     1.678932674749   116.54753293   173.08484491
 N     22  20  19     1.329199778701   119.85146163   351.80616751
 H     24  22  20     1.011000027216   118.41154890   352.16184473
 C     24  22  20     1.445168446124   125.71922469   181.58618608
 H     26  24  22     1.094118353012   108.58572668   242.33400449
 H     26  24  22     1.091213936501   107.73959435   359.95333044
 C     26  24  22     1.524588436316   110.86516247   121.45055648
 H     29  26  24     1.086880252788   110.34306274   299.41798585
 H     29  26  24     1.086850096887   110.35986696    59.98883674
 H     29  26  24     1.085109945176   109.55102943   179.76696814
 C      7   5   4     1.389752438320   117.66172503   184.36342691
 H     33   7   5     1.079551847234   118.65446739     0.09758552
 C      3   2   1     1.393706514993   121.52566485   180.38627657
 H     35   3   2     1.076528903920   119.76983268   179.74012317
 C     35   3   2     1.380505407806   117.44715676   359.26797112
 O     37  35   3     1.414142283749   123.41290784   179.93843896
 C     38  37  35     1.309837112909   120.79561906     3.49162436
 F     39  38  37     1.346071101967   114.95223193    60.12247826
 F     39  38  37     1.333484294229   108.95729834   179.18278653
 F     39  38  37     1.348854246509   114.78146282   297.82835743
 C     37  35   3     1.385611880986   122.51421799     0.48858099
 H     43  37  35     1.075214868171   118.11964312   180.02579250
 C     43  37  35     1.393136906653   119.31169221     0.00000000
 O     45  43  37     1.343948325197   124.72683922   179.87277110
 C     46  45  43     1.420210044730   118.91044114     0.21463715
 H     47  46  45     1.091596962369   111.02428046   298.90413837
 H     47  46  45     1.091670643374   111.01124903    61.43057709
 H     47  46  45     1.086946402536   105.36168783   180.16542338

---------------------------
INTERNAL COORDINATES (A.U.)
---------------------------
 H      0   0   0     0.000000000000     0.00000000     0.00000000
 C      1   0   0     2.034241685991     0.00000000     0.00000000
 C      2   1   0     2.608437080314   120.47405262     0.00000000
 O      3   2   1     2.616869083416   116.86763043   357.53402071
 C      4   3   2     2.538749264790   121.60899988   137.28460943
 O      5   4   3     2.288223099455   124.12549172   357.76450795
 C      5   4   3     2.804076043874   111.86840700   178.84620049
 C      7   5   4     2.631975175805   121.79863978     4.65365396
 H      8   7   5     2.032139817850   119.15116148   359.09415577
 C      8   7   5     2.628518827575   119.15599250   178.20429957
 C     10   8   7     2.821274028447   122.80395466   181.25069383
 O     11  10   8     2.301135978184   120.63431326   179.29514108
 C     11  10   8     2.833480722552   117.43830975   358.94284134
 H     13  11  10     2.053757029554   109.87759452   301.03482848
 H     13  11  10     2.053170689177   109.78299532    60.30359246
 H     13  11  10     2.053081578967   109.40039245   180.54777662
 C     10   8   7     2.637755219148   120.01379316     0.89369754
 H     17  10   8     2.038997394651   116.99661639   183.91881836
 C     17  10   8     2.633009479072   121.19316136     1.29667534
 N     19  17  10     2.626582445351   124.26797899   180.29205914
 H     20  19  17     1.913555339552   114.93527891   156.28853285
 C     20  19  17     2.574378561147   132.17152460   332.33281703
 S     22  20  19     3.172722952567   116.54753293   173.08484491
 N     22  20  19     2.511823559014   119.85146163   351.80616751
 H     24  22  20     1.910513172825   118.41154890   352.16184473
 C     24  22  20     2.730972580559   125.71922469   181.58618608
 H     26  24  22     2.067584045289   108.58572668   242.33400449
 H     26  24  22     2.062095493505   107.73959435   359.95333044
 C     26  24  22     2.881054611581   110.86516247   121.45055648
 H     29  26  24     2.053906018136   110.34306274   299.41798585
 H     29  26  24     2.053849031742   110.35986696    59.98883674
 H     29  26  24     2.050560621576   109.55102943   179.76696814
 C      7   5   4     2.626251502373   117.66172503   184.36342691
 H     33   7   5     2.040057338640   118.65446739     0.09758552
 C      3   2   1     2.633723624398   121.52566485   180.38627657
 H     35   3   2     2.034344803659   119.76983268   179.74012317
 C     35   3   2     2.608777147150   117.44715676   359.26797112
 O     37  35   3     2.672341630684   123.41290784   179.93843896
 C     38  37  35     2.475233423445   120.79561906     3.49162436
 F     39  38  37     2.543705739504   114.95223193    60.12247826
 F     39  38  37     2.519920119978   108.95729834   179.18278653
 F     39  38  37     2.548965120478   114.78146282   297.82835743
 C     37  35   3     2.618426982971   122.51421799     0.48858099
 H     43  37  35     2.031861635963   118.11964312   180.02579250
 C     43  37  35     2.632647220632   119.31169221     0.00000000
 O     45  43  37     2.539694272764   124.72683922   179.87277110
 C     46  45  43     2.683808037184   118.91044114     0.21463715
 H     47  46  45     2.062819307498   111.02428046   298.90413837
 H     47  46  45     2.062958544418   111.01124903    61.43057709
 H     47  46  45     2.054031023044   105.36168783   180.16542338

---------------------
BASIS SET INFORMATION
---------------------
There are 6 groups of distinct atoms

 Group   1 Type H   : 4s1p contracted to 2s1p pattern {31/1}
 Group   2 Type C   : 7s4p1d contracted to 3s2p1d pattern {511/31/1}
 Group   3 Type O   : 7s4p1d contracted to 3s2p1d pattern {511/31/1}
 Group   4 Type N   : 7s4p1d contracted to 3s2p1d pattern {511/31/1}
 Group   5 Type S   : 10s7p1d contracted to 4s3p1d pattern {5311/511/1}
 Group   6 Type F   : 7s4p1d contracted to 3s2p1d pattern {511/31/1}

Atom   0H    basis set group =>   1
Atom   1C    basis set group =>   2
Atom   2C    basis set group =>   2
Atom   3O    basis set group =>   3
Atom   4C    basis set group =>   2
Atom   5O    basis set group =>   3
Atom   6C    basis set group =>   2
Atom   7C    basis set group =>   2
Atom   8H    basis set group =>   1
Atom   9C    basis set group =>   2
Atom  10C    basis set group =>   2
Atom  11O    basis set group =>   3
Atom  12C    basis set group =>   2
Atom  13H    basis set group =>   1
Atom  14H    basis set group =>   1
Atom  15H    basis set group =>   1
Atom  16C    basis set group =>   2
Atom  17H    basis set group =>   1
Atom  18C    basis set group =>   2
Atom  19N    basis set group =>   4
Atom  20H    basis set group =>   1
Atom  21C    basis set group =>   2
Atom  22S    basis set group =>   5
Atom  23N    basis set group =>   4
Atom  24H    basis set group =>   1
Atom  25C    basis set group =>   2
Atom  26H    basis set group =>   1
Atom  27H    basis set group =>   1
Atom  28C    basis set group =>   2
Atom  29H    basis set group =>   1
Atom  30H    basis set group =>   1
Atom  31H    basis set group =>   1
Atom  32C    basis set group =>   2
Atom  33H    basis set group =>   1
Atom  34C    basis set group =>   2
Atom  35H    basis set group =>   1
Atom  36C    basis set group =>   2
Atom  37O    basis set group =>   3
Atom  38C    basis set group =>   2
Atom  39F    basis set group =>   6
Atom  40F    basis set group =>   6
Atom  41F    basis set group =>   6
Atom  42C    basis set group =>   2
Atom  43H    basis set group =>   1
Atom  44C    basis set group =>   2
Atom  45O    basis set group =>   3
Atom  46C    basis set group =>   2
Atom  47H    basis set group =>   1
Atom  48H    basis set group =>   1
Atom  49H    basis set group =>   1
---------------------------------
AUXILIARY/J BASIS SET INFORMATION
---------------------------------
There are 6 groups of distinct atoms

 Group   1 Type H   : 5s2p1d contracted to 3s1p1d pattern {311/2/1}
 Group   2 Type C   : 12s5p4d2f1g contracted to 6s4p3d1f1g pattern {711111/2111/211/2/1}
 Group   3 Type O   : 12s5p4d2f1g contracted to 6s4p3d1f1g pattern {711111/2111/211/2/1}
 Group   4 Type N   : 12s5p4d2f1g contracted to 6s4p3d1f1g pattern {711111/2111/211/2/1}
 Group   5 Type S   : 14s5p5d2f1g contracted to 8s4p3d1f1g pattern {71111111/2111/311/2/1}
 Group   6 Type F   : 12s5p4d2f1g contracted to 6s4p3d1f1g pattern {711111/2111/211/2/1}

Atom   0H    basis set group =>   1
Atom   1C    basis set group =>   2
Atom   2C    basis set group =>   2
Atom   3O    basis set group =>   3
Atom   4C    basis set group =>   2
Atom   5O    basis set group =>   3
Atom   6C    basis set group =>   2
Atom   7C    basis set group =>   2
Atom   8H    basis set group =>   1
Atom   9C    basis set group =>   2
Atom  10C    basis set group =>   2
Atom  11O    basis set group =>   3
Atom  12C    basis set group =>   2
Atom  13H    basis set group =>   1
Atom  14H    basis set group =>   1
Atom  15H    basis set group =>   1
Atom  16C    basis set group =>   2
Atom  17H    basis set group =>   1
Atom  18C    basis set group =>   2
Atom  19N    basis set group =>   4
Atom  20H    basis set group =>   1
Atom  21C    basis set group =>   2
Atom  22S    basis set group =>   5
Atom  23N    basis set group =>   4
Atom  24H    basis set group =>   1
Atom  25C    basis set group =>   2
Atom  26H    basis set group =>   1
Atom  27H    basis set group =>   1
Atom  28C    basis set group =>   2
Atom  29H    basis set group =>   1
Atom  30H    basis set group =>   1
Atom  31H    basis set group =>   1
Atom  32C    basis set group =>   2
Atom  33H    basis set group =>   1
Atom  34C    basis set group =>   2
Atom  35H    basis set group =>   1
Atom  36C    basis set group =>   2
Atom  37O    basis set group =>   3
Atom  38C    basis set group =>   2
Atom  39F    basis set group =>   6
Atom  40F    basis set group =>   6
Atom  41F    basis set group =>   6
Atom  42C    basis set group =>   2
Atom  43H    basis set group =>   1
Atom  44C    basis set group =>   2
Atom  45O    basis set group =>   3
Atom  46C    basis set group =>   2
Atom  47H    basis set group =>   1
Atom  48H    basis set group =>   1
Atom  49H    basis set group =>   1
------------------------------------------------------------------------------
                           ORCA GTO INTEGRAL CALCULATION
                           -- RI-GTO INTEGRALS CHOSEN --
------------------------------------------------------------------------------
------------------------------------------------------------------------------
                   ___                                                        
                  /   \      - P O W E R E D   B Y -                         
                 /     \                                                     
                 |  |  |   _    _      __       _____    __    __             
                 |  |  |  | |  | |    /  \     |  _  \  |  |  /  |          
                  \  \/   | |  | |   /    \    | | | |  |  | /  /          
                 / \  \   | |__| |  /  /\  \   | |_| |  |  |/  /          
                |  |  |   |  __  | /  /__\  \  |    /   |      \           
                |  |  |   | |  | | |   __   |  |    \   |  |\   \          
                \     /   | |  | | |  |  |  |  | |\  \  |  | \   \       
                 \___/    |_|  |_| |__|  |__|  |_| \__\ |__|  \__/        
                                                                              
                      - O R C A' S   B I G   F R I E N D -                    
                                      &                                       
                       - I N T E G R A L  F E E D E R -                       
                                                                              
 v1 FN, 2020, v2 2021                                                         
------------------------------------------------------------------------------


Reading SHARK input file /home/sk77/PycharmProjects/omg_database_publication/run_calculation/calculation_results/pareto_greedy/0/reaction_10005258/opt_n_1/conformer_4/property.SHARKINP.tmp ... ok
----------------------
SHARK INTEGRAL PACKAGE
----------------------

Number of atoms                             ...     50
Number of basis functions                   ...    533
Number of shells                            ...    245
Maximum angular momentum                    ...      2
Integral batch strategy                     ... SHARK/LIBINT Hybrid
RI-J (if used) integral strategy            ... SPLIT-RIJ (Revised 2003 algorithm where possible)
Printlevel                                  ...      1
Contraction scheme used                     ... SEGMENTED contraction
Coulomb Range Separation                    ... NOT USED
Exchange Range Separation                   ... NOT USED
Finite Nucleus Model                        ... NOT USED
Auxiliary Coulomb fitting basis             ... AVAILABLE
   # of basis functions in Aux-J            ...   1730
   # of shells in Aux-J                     ...    562
   Maximum angular momentum in Aux-J        ...      4
Auxiliary J/K fitting basis                 ... NOT available
Auxiliary Correlation fitting basis         ... NOT available
Auxiliary 'external' fitting basis          ... NOT available
Integral threshold                          ...     1.000000e-10
Primitive cut-off                           ...     1.000000e-11
Primitive pair pre-selection threshold      ...     1.000000e-11

Calculating pre-screening integrals         ... done (  0.1 sec) Dimension = 245
Organizing shell pair data                  ... done (  1.5 sec)
Shell pair information
Total number of shell pairs                 ...     30135
Shell pairs after pre-screening             ...     15198
Total number of primitive shell pairs       ...    112571
Primitive shell pairs kept                  ...     35237
          la=0 lb=0:   4571 shell pairs
          la=1 lb=0:   5647 shell pairs
          la=1 lb=1:   1807 shell pairs
          la=2 lb=0:   1832 shell pairs
          la=2 lb=1:   1155 shell pairs
          la=2 lb=2:    186 shell pairs

Calculating one electron integrals          ... done (  0.2 sec)
Calculating RI/J V-Matrix + Cholesky decomp.... done (  2.1 sec)
Calculating Nuclear repulsion               ... done (  0.4 sec) ENN=   3102.044810704073 Eh

SHARK setup successfully completed in   6.2 seconds

Maximum memory used throughout the entire GTOINT-calculation: 98.2 MB
-------------------------------------------------------------------------------
                                 ORCA SCF
-------------------------------------------------------------------------------

------------
SCF SETTINGS
------------
Hamiltonian:
 Density Functional     Method          .... DFT(GTOs)
 Exchange Functional    Exchange        .... PBE
   PBE kappa parameter   XKappa         ....  1.245000
   PBE mue parameter    XMuePBE         ....  0.219520
 Correlation Functional Correlation     .... PBE
   PBE beta parameter  CBetaPBE         ....  0.066725
 LDA part of GGA corr.  LDAOpt          .... PW91-LDA
 Gradients option       PostSCFGGA      .... off
   Density functional embedding theory  .... OFF
   NL short-range parameter             ....  3.700000
 RI-approximation to the Coulomb term is turned on
   Number of AuxJ basis functions       .... 1730


General Settings:
 Integral files         IntName         .... /home/sk77/PycharmProjects/omg_database_publication/run_calculation/calculation_results/pareto_greedy/0/reaction_10005258/opt_n_1/conformer_4/property
 Hartree-Fock type      HFTyp           .... RHF
 Total Charge           Charge          ....    0
 Multiplicity           Mult            ....    1
 Number of Electrons    NEL             ....  236
 Basis Dimension        Dim             ....  533
 Nuclear Repulsion      ENuc            ....   3102.0448107041 Eh

Convergence Acceleration:
 DIIS                   CNVDIIS         .... on
   Start iteration      DIISMaxIt       ....    12
   Startup error        DIISStart       ....  0.200000
   # of expansion vecs  DIISMaxEq       ....     5
   Bias factor          DIISBfac        ....   1.050
   Max. coefficient     DIISMaxC        ....  10.000
 Trust-Rad. Augm. Hess. CNVTRAH         .... auto
   Auto Start mean grad. ratio tolernc. ....  1.125000
   Auto Start start iteration           ....    20
   Auto Start num. interpolation iter.  ....    10
   Max. Number of Micro iterations      ....    16
   Max. Number of Macro iterations      .... Maxiter - #DIIS iter
   Number of Davidson start vectors     ....     2
   Converg. threshold I  (grad. norm)   ....   5.000e-05
   Converg. threshold II (energy diff.) ....   1.000e-06
   Grad. Scal. Fac. for Micro threshold ....   0.100
   Minimum threshold for Micro iter.    ....   0.010
   NR start threshold (gradient norm)   ....   0.001
   Initial trust radius                 ....   0.400
   Minimum AH scaling param. (alpha)    ....   1.000
   Maximum AH scaling param. (alpha)    .... 1000.000
   Orbital update algorithm             .... Taylor
   White noise on init. David. guess    .... on
   Maximum white noise                  ....   0.010
   Quad. conv. algorithm                .... NR
   COSX micro iterations for RIJONX calc.... off
 SOSCF                  CNVSOSCF        .... on
   Start iteration      SOSCFMaxIt      ....   150
   Startup grad/error   SOSCFStart      ....  0.003300
 Level Shifting         CNVShift        .... on
   Level shift para.    LevelShift      ....    0.2500
   Turn off err/grad.   ShiftErr        ....    0.0010
 Zerner damping         CNVZerner       .... off
 Static damping         CNVDamp         .... on
   Fraction old density DampFac         ....    0.7000
   Max. Damping (<1)    DampMax         ....    0.9800
   Min. Damping (>=0)   DampMin         ....    0.0000
   Turn off err/grad.   DampErr         ....    0.1000
 Fernandez-Rico         CNVRico         .... off

SCF Procedure:
 Maximum # iterations   MaxIter         ....   125
 SCF integral mode      SCFMode         .... Direct
   Integral package                     .... SHARK and LIBINT hybrid scheme
 Reset frequency        DirectResetFreq ....    20
 Integral Threshold     Thresh          ....  1.000e-10 Eh
 Primitive CutOff       TCut            ....  1.000e-11 Eh

Convergence Tolerance:
 Convergence Check Mode ConvCheckMode   .... Total+1el-Energy
 Convergence forced     ConvForced      .... 1
 Energy Change          TolE            ....  1.000e-06 Eh
 1-El. energy change                    ....  1.000e-03 Eh
 Orbital Gradient       TolG            ....  5.000e-05
 Orbital Rotation angle TolX            ....  5.000e-05
 DIIS Error             TolErr          ....  1.000e-06


Diagonalization of the overlap matrix:
Smallest eigenvalue                        ... 2.171e-04
Time for diagonalization                   ...    0.046 sec
Threshold for overlap eigenvalues          ... 1.000e-08
Number of eigenvalues below threshold      ... 0
Time for construction of square roots      ...    0.806 sec
Total time needed                          ...    0.854 sec

Time for model grid setup =    2.092 sec

------------------------------
INITIAL GUESS: MODEL POTENTIAL
------------------------------
Loading Hartree-Fock densities                     ... done
Calculating cut-offs                               ... done
Initializing the effective Hamiltonian             ... done
Setting up the integral package (SHARK)            ... done
Starting the Coulomb interaction                   ... done (   2.3 sec)
Reading the grid                                   ... done
Mapping shells                                     ... done
Starting the XC term evaluation                    ... done (   1.0 sec)
  promolecular density results
     # of electrons  =    235.973235746
     EX              =   -218.173502903
     EC              =     -8.114651612
     EX+EC           =   -226.288154515
Transforming the Hamiltonian                       ... done (   0.0 sec)
Diagonalizing the Hamiltonian                      ... done (   0.0 sec)
Back transforming the eigenvectors                 ... done (   0.0 sec)
Now organizing SCF variables                       ... done
                      ------------------
                      INITIAL GUESS DONE (   5.8 sec)
                      ------------------
-------------------
DFT GRID GENERATION
-------------------

General Integration Accuracy     IntAcc      ... 4.388
Radial Grid Type                 RadialGrid  ... OptM3 with GC (2021)
Angular Grid (max. ang.)         AngularGrid ... 4 (Lebedev-302)
Angular grid pruning method      GridPruning ... 4 (adaptive)
Weight generation scheme         WeightScheme... Becke
Basis function cutoff            BFCut       ... 1.0000e-10
Integration weight cutoff        WCut        ... 1.0000e-14
Angular grids for H and He will be reduced by one unit
Partially contracted basis set               ... off
Rotationally invariant grid construction     ... off

Total number of grid points                  ...   248087
Total number of batches                      ...     3900
Average number of points per batch           ...       63
Average number of grid points per atom       ...     4962
Time for grid setup =    6.956 sec


--------------------
CPCM SOLVATION MODEL
--------------------
CPCM parameters:
  Epsilon                                         ...       2.4000
  Refrac                                          ...       1.4970
  Rsolv                                           ...       1.3000
  Surface type                                    ... GAUSSIAN VDW
  Epsilon function type                           ...        COSMO
Radii:
 Radius for H  used is    2.4944 Bohr (=   1.3200 Ang.)
 Radius for C  used is    3.8550 Bohr (=   2.0400 Ang.)
 Radius for O  used is    3.4469 Bohr (=   1.8240 Ang.)
 Radius for N  used is    3.5149 Bohr (=   1.8600 Ang.)
 Radius for S  used is    4.0818 Bohr (=   2.1600 Ang.)
 Radius for F  used is    3.3335 Bohr (=   1.7640 Ang.)
Calculating surface                               ...        done! (  0.0s)
GEPOL surface points                              ...         2660
GEPOL Volume                                      ...    3282.8255
GEPOL Surface-area                                ...    1695.2404
Calculating surface distance matrix               ...        done! (  0.1s)
Performing Cholesky decomposition & store         ...        done! (  3.0s)
Overall time for CPCM initialization              ...                 3.1s
--------------
SCF ITERATIONS
--------------
ITER       Energy         Delta-E        Max-DP      RMS-DP      [F,P]     Damp
               ***  Starting incremental Fock matrix formation  ***
  0  -1954.5780215047   0.000000000000 0.13094409  0.00153104  0.2351058 0.7000
  1  -1954.8661303386  -0.288108833898 0.08027185  0.00095042  0.0713054 0.7000
                               ***Turning on DIIS***
  2  -1954.9581467616  -0.092016423068 0.09359936  0.00138329  0.0264025 0.0000
  3  -1955.1235948597  -0.165448098116 0.04727422  0.00063945  0.0440760 0.0000
  4  -1955.1546994726  -0.031104612894 0.01679002  0.00024325  0.0268415 0.0000
  5  -1955.1588225224  -0.004123049790 0.00553466  0.00007939  0.0057534 0.0000
                      *** Initiating the SOSCF procedure ***
                           *** Shutting down DIIS ***
                      *** Re-Reading the Fockian *** 
                      *** Removing any level shift *** 
ITER      Energy       Delta-E        Grad      Rot      Max-DP    RMS-DP
  6  -1955.15902387  -0.0002013462  0.000417  0.000417  0.001582  0.000028
               *** Restarting incremental Fock matrix formation ***
  7  -1955.15905186  -0.0000279922  0.000205  0.001215  0.001259  0.000019
  8  -1955.15904659   0.0000052714  0.000375  0.000419  0.001008  0.000011
  9  -1955.15905570  -0.0000091062  0.000094  0.000311  0.000776  0.000007
 10  -1955.15905438   0.0000013119  0.000173  0.000218  0.000556  0.000005
 11  -1955.15905612  -0.0000017344  0.000018  0.000110  0.000100  0.000002
                 **** Energy Check signals convergence ****
              ***Rediagonalizing the Fockian in SOSCF/NRSCF***

               *****************************************************
               *                     SUCCESS                       *
               *           SCF CONVERGED AFTER  12 CYCLES          *
               *****************************************************


----------------
TOTAL SCF ENERGY
----------------

Total Energy       :        -1955.15905603 Eh          -53202.58268 eV

Components:
Nuclear Repulsion  :         3102.04481070 Eh           84410.93067 eV
Electronic Energy  :        -5057.20386674 Eh         -137613.51335 eV
One Electron Energy:        -8850.55830647 Eh         -240835.93538 eV
Two Electron Energy:         3793.35443974 Eh          103222.42203 eV
CPCM Dielectric    :           -0.01333369 Eh              -0.36283 eV

Virial components:
Potential Energy   :        -3896.44667466 Eh         -106027.70436 eV
Kinetic Energy     :         1941.28761863 Eh           52825.12168 eV
Virial Ratio       :            2.00714548


DFT components:
N(Alpha)           :      118.000195078725 electrons
N(Beta)            :      118.000195078725 electrons
N(Total)           :      236.000390157451 electrons
E(X)               :     -220.905758038558 Eh       
E(C)               :       -8.133204566839 Eh       
E(XC)              :     -229.038962605398 Eh       
DFET-embed. en.    :        0.000000000000 Eh       
CPCM Solvation Model Properties:
Surface-charge          :           -0.02516834
Charge-correction       :            0.00003776 Eh               0.00103 eV
Free-energy (cav+disp)  :  This term is not implemented in the current solvation scheme

---------------
SCF CONVERGENCE
---------------

  Last Energy change         ...    8.4672e-08  Tolerance :   1.0000e-06
  Last MAX-Density change    ...    7.5352e-05  Tolerance :   1.0000e-05
  Last RMS-Density change    ...    1.3104e-06  Tolerance :   1.0000e-06
  Last Orbital Gradient      ...    4.2578e-05  Tolerance :   5.0000e-05
  Last Orbital Rotation      ...    7.0392e-05  Tolerance :   5.0000e-05

             **** THE GBW FILE WAS UPDATED (/home/sk77/PycharmProjects/omg_database_publication/run_calculation/calculation_results/pareto_greedy/0/reaction_10005258/opt_n_1/conformer_4/property.gbw) ****
             **** DENSITY /home/sk77/PycharmProjects/omg_database_publication/run_calculation/calculation_results/pareto_greedy/0/reaction_10005258/opt_n_1/conformer_4/property.scfp WAS UPDATED ****
             **** ENERGY FILE WAS UPDATED (/home/sk77/PycharmProjects/omg_database_publication/run_calculation/calculation_results/pareto_greedy/0/reaction_10005258/opt_n_1/conformer_4/property.en.tmp) ****
             **** THE GBW FILE WAS UPDATED (/home/sk77/PycharmProjects/omg_database_publication/run_calculation/calculation_results/pareto_greedy/0/reaction_10005258/opt_n_1/conformer_4/property.gbw) ****
             **** DENSITY /home/sk77/PycharmProjects/omg_database_publication/run_calculation/calculation_results/pareto_greedy/0/reaction_10005258/opt_n_1/conformer_4/property.scfp WAS UPDATED ****
----------------
ORBITAL ENERGIES
----------------

  NO   OCC          E(Eh)            E(eV) 
   0   2.0000     -87.981801     -2394.1065 
   1   2.0000     -24.305710      -661.3920 
   2   2.0000     -24.304653      -661.3632 
   3   2.0000     -24.304186      -661.3505 
   4   2.0000     -18.850703      -512.9537 
   5   2.0000     -18.844605      -512.7878 
   6   2.0000     -18.818938      -512.0893 
   7   2.0000     -18.771742      -510.8051 
   8   2.0000     -18.767479      -510.6891 
   9   2.0000     -14.058887      -382.5618 
  10   2.0000     -14.049666      -382.3108 
  11   2.0000     -10.188852      -277.2528 
  12   2.0000     -10.045418      -273.3497 
  13   2.0000     -10.012479      -272.4534 
  14   2.0000      -9.998587      -272.0754 
  15   2.0000      -9.997587      -272.0482 
  16   2.0000      -9.990527      -271.8561 
  17   2.0000      -9.986739      -271.7530 
  18   2.0000      -9.976695      -271.4797 
  19   2.0000      -9.968506      -271.2568 
  20   2.0000      -9.942196      -270.5409 
  21   2.0000      -9.941324      -270.5172 
  22   2.0000      -9.935660      -270.3630 
  23   2.0000      -9.934273      -270.3253 
  24   2.0000      -9.932732      -270.2834 
  25   2.0000      -9.932684      -270.2821 
  26   2.0000      -9.922203      -269.9969 
  27   2.0000      -9.921703      -269.9833 
  28   2.0000      -9.918242      -269.8891 
  29   2.0000      -9.912811      -269.7413 
  30   2.0000      -9.904075      -269.5036 
  31   2.0000      -7.615705      -207.2339 
  32   2.0000      -5.639013      -153.4454 
  33   2.0000      -5.632233      -153.2609 
  34   2.0000      -5.628432      -153.1574 
  35   2.0000      -1.213510       -33.0213 
  36   2.0000      -1.110655       -30.2225 
  37   2.0000      -1.106277       -30.1033 
  38   2.0000      -1.038131       -28.2490 
  39   2.0000      -1.028347       -27.9828 
  40   2.0000      -0.991972       -26.9929 
  41   2.0000      -0.953011       -25.9327 
  42   2.0000      -0.943962       -25.6865 
  43   2.0000      -0.919588       -25.0233 
  44   2.0000      -0.856011       -23.2932 
  45   2.0000      -0.806415       -21.9437 
  46   2.0000      -0.800021       -21.7697 
  47   2.0000      -0.733216       -19.9518 
  48   2.0000      -0.724559       -19.7162 
  49   2.0000      -0.717702       -19.5297 
  50   2.0000      -0.701402       -19.0861 
  51   2.0000      -0.690872       -18.7996 
  52   2.0000      -0.672600       -18.3024 
  53   2.0000      -0.653357       -17.7787 
  54   2.0000      -0.651152       -17.7188 
  55   2.0000      -0.644104       -17.5270 
  56   2.0000      -0.621308       -16.9066 
  57   2.0000      -0.597016       -16.2456 
  58   2.0000      -0.589091       -16.0300 
  59   2.0000      -0.586203       -15.9514 
  60   2.0000      -0.572225       -15.5710 
  61   2.0000      -0.551376       -15.0037 
  62   2.0000      -0.543364       -14.7857 
  63   2.0000      -0.540537       -14.7087 
  64   2.0000      -0.532061       -14.4781 
  65   2.0000      -0.526608       -14.3297 
  66   2.0000      -0.513247       -13.9661 
  67   2.0000      -0.500676       -13.6241 
  68   2.0000      -0.472287       -12.8516 
  69   2.0000      -0.471904       -12.8412 
  70   2.0000      -0.469309       -12.7706 
  71   2.0000      -0.459668       -12.5082 
  72   2.0000      -0.458136       -12.4665 
  73   2.0000      -0.450008       -12.2453 
  74   2.0000      -0.440008       -11.9732 
  75   2.0000      -0.431852       -11.7513 
  76   2.0000      -0.429007       -11.6739 
  77   2.0000      -0.425039       -11.5659 
  78   2.0000      -0.421808       -11.4780 
  79   2.0000      -0.416724       -11.3396 
  80   2.0000      -0.413167       -11.2428 
  81   2.0000      -0.412269       -11.2184 
  82   2.0000      -0.410013       -11.1570 
  83   2.0000      -0.408513       -11.1162 
  84   2.0000      -0.401504       -10.9255 
  85   2.0000      -0.391826       -10.6621 
  86   2.0000      -0.389837       -10.6080 
  87   2.0000      -0.384800       -10.4709 
  88   2.0000      -0.377308       -10.2671 
  89   2.0000      -0.373106       -10.1527 
  90   2.0000      -0.372202       -10.1281 
  91   2.0000      -0.365945        -9.9579 
  92   2.0000      -0.362119        -9.8537 
  93   2.0000      -0.358802        -9.7635 
  94   2.0000      -0.355727        -9.6798 
  95   2.0000      -0.350310        -9.5324 
  96   2.0000      -0.346102        -9.4179 
  97   2.0000      -0.343394        -9.3442 
  98   2.0000      -0.341840        -9.3019 
  99   2.0000      -0.338990        -9.2244 
 100   2.0000      -0.337489        -9.1835 
 101   2.0000      -0.335075        -9.1179 
 102   2.0000      -0.330532        -8.9942 
 103   2.0000      -0.325852        -8.8669 
 104   2.0000      -0.317996        -8.6531 
 105   2.0000      -0.312769        -8.5109 
 106   2.0000      -0.307298        -8.3620 
 107   2.0000      -0.303038        -8.2461 
 108   2.0000      -0.278911        -7.5896 
 109   2.0000      -0.277510        -7.5514 
 110   2.0000      -0.255114        -6.9420 
 111   2.0000      -0.248072        -6.7504 
 112   2.0000      -0.229755        -6.2520 
 113   2.0000      -0.216258        -5.8847 
 114   2.0000      -0.215068        -5.8523 
 115   2.0000      -0.210695        -5.7333 
 116   2.0000      -0.184449        -5.0191 
 117   2.0000      -0.173177        -4.7124 
 118   0.0000      -0.106861        -2.9078 
 119   0.0000      -0.088298        -2.4027 
 120   0.0000      -0.050277        -1.3681 
 121   0.0000      -0.042413        -1.1541 
 122   0.0000      -0.034522        -0.9394 
 123   0.0000       0.002860         0.0778 
 124   0.0000       0.017815         0.4848 
 125   0.0000       0.035572         0.9680 
 126   0.0000       0.038466         1.0467 
 127   0.0000       0.040335         1.0976 
 128   0.0000       0.049144         1.3373 
 129   0.0000       0.051636         1.4051 
 130   0.0000       0.073005         1.9866 
 131   0.0000       0.075336         2.0500 
 132   0.0000       0.083455         2.2709 
 133   0.0000       0.084246         2.2925 
 134   0.0000       0.089118         2.4250 
 135   0.0000       0.096989         2.6392 
 136   0.0000       0.100250         2.7279 
 137   0.0000       0.102195         2.7809 
 138   0.0000       0.106487         2.8977 
 139   0.0000       0.108094         2.9414 
 140   0.0000       0.108822         2.9612 
 141   0.0000       0.112204         3.0532 
 142   0.0000       0.114727         3.1219 
 143   0.0000       0.115112         3.1324 
 144   0.0000       0.120422         3.2769 
 145   0.0000       0.121911         3.3174 
 146   0.0000       0.123665         3.3651 
 147   0.0000       0.131928         3.5899 
 148   0.0000       0.136192         3.7060 
 149   0.0000       0.138330         3.7641 
 150   0.0000       0.153567         4.1788 
 151   0.0000       0.156969         4.2713 
 152   0.0000       0.162220         4.4142 
 153   0.0000       0.180473         4.9109 
 154   0.0000       0.182953         4.9784 
 155   0.0000       0.188527         5.1301 
 156   0.0000       0.195901         5.3307 
 157   0.0000       0.198398         5.3987 
 158   0.0000       0.206220         5.6115 
 159   0.0000       0.214124         5.8266 
 160   0.0000       0.226460         6.1623 
 161   0.0000       0.232675         6.3314 
 162   0.0000       0.236948         6.4477 
 163   0.0000       0.241221         6.5640 
 164   0.0000       0.243623         6.6293 
 165   0.0000       0.250891         6.8271 
 166   0.0000       0.257176         6.9981 
 167   0.0000       0.259660         7.0657 
 168   0.0000       0.272559         7.4167 
 169   0.0000       0.276037         7.5113 
 170   0.0000       0.284386         7.7385 
 171   0.0000       0.290407         7.9024 
 172   0.0000       0.300300         8.1716 
 173   0.0000       0.307514         8.3679 
 174   0.0000       0.314875         8.5682 
 175   0.0000       0.319608         8.6970 
 176   0.0000       0.326503         8.8846 
 177   0.0000       0.328251         8.9322 
 178   0.0000       0.348875         9.4934 
 179   0.0000       0.359470         9.7817 
 180   0.0000       0.366129         9.9629 
 181   0.0000       0.374123        10.1804 
 182   0.0000       0.375767        10.2251 
 183   0.0000       0.385499        10.4900 
 184   0.0000       0.392507        10.6807 
 185   0.0000       0.392970        10.6933 
 186   0.0000       0.400648        10.9022 
 187   0.0000       0.403202        10.9717 
 188   0.0000       0.405884        11.0447 
 189   0.0000       0.408453        11.1146 
 190   0.0000       0.417842        11.3701 
 191   0.0000       0.418879        11.3983 
 192   0.0000       0.419918        11.4266 
 193   0.0000       0.423879        11.5343 
 194   0.0000       0.436812        11.8862 
 195   0.0000       0.441009        12.0005 
 196   0.0000       0.443635        12.0719 
 197   0.0000       0.448464        12.2033 
 198   0.0000       0.452205        12.3051 
 199   0.0000       0.456003        12.4085 
 200   0.0000       0.457858        12.4589 
 201   0.0000       0.467484        12.7209 
 202   0.0000       0.477980        13.0065 
 203   0.0000       0.481546        13.1035 
 204   0.0000       0.492419        13.3994 
 205   0.0000       0.502150        13.6642 
 206   0.0000       0.511016        13.9054 
 207   0.0000       0.512373        13.9424 
 208   0.0000       0.517919        14.0933 
 209   0.0000       0.526419        14.3246 
 210   0.0000       0.529734        14.4148 
 211   0.0000       0.533140        14.5075 
 212   0.0000       0.540377        14.7044 
 213   0.0000       0.549062        14.9407 
 214   0.0000       0.555974        15.1288 
 215   0.0000       0.564972        15.3737 
 216   0.0000       0.572303        15.5732 
 217   0.0000       0.573593        15.6083 
 218   0.0000       0.578838        15.7510 
 219   0.0000       0.583281        15.8719 
 220   0.0000       0.590138        16.0585 
 221   0.0000       0.590761        16.0754 
 222   0.0000       0.594115        16.1667 
 223   0.0000       0.598947        16.2982 
 224   0.0000       0.603122        16.4118 
 225   0.0000       0.604759        16.4563 
 226   0.0000       0.608122        16.5478 
 227   0.0000       0.610495        16.6124 
 228   0.0000       0.612456        16.6658 
 229   0.0000       0.614302        16.7160 
 230   0.0000       0.619260        16.8509 
 231   0.0000       0.622608        16.9420 
 232   0.0000       0.625781        17.0284 
 233   0.0000       0.627291        17.0695 
 234   0.0000       0.631480        17.1835 
 235   0.0000       0.641241        17.4491 
 236   0.0000       0.642320        17.4784 
 237   0.0000       0.647502        17.6194 
 238   0.0000       0.653706        17.7882 
 239   0.0000       0.654435        17.8081 
 240   0.0000       0.657342        17.8872 
 241   0.0000       0.659651        17.9500 
 242   0.0000       0.662114        18.0170 
 243   0.0000       0.666609        18.1394 
 244   0.0000       0.671215        18.2647 
 245   0.0000       0.678748        18.4697 
 246   0.0000       0.681178        18.5358 
 247   0.0000       0.688533        18.7359 
 248   0.0000       0.694265        18.8919 
 249   0.0000       0.697380        18.9767 
 250   0.0000       0.698902        19.0181 
 251   0.0000       0.708849        19.2888 
 252   0.0000       0.720277        19.5997 
 253   0.0000       0.722394        19.6573 
 254   0.0000       0.730029        19.8651 
 255   0.0000       0.735386        20.0109 
 256   0.0000       0.739348        20.1187 
 257   0.0000       0.753075        20.4922 
 258   0.0000       0.757935        20.6245 
 259   0.0000       0.765787        20.8381 
 260   0.0000       0.775776        21.1099 
 261   0.0000       0.780981        21.2516 
 262   0.0000       0.793014        21.5790 
 263   0.0000       0.798822        21.7371 
 264   0.0000       0.808495        22.0003 
 265   0.0000       0.814902        22.1746 
 266   0.0000       0.823848        22.4180 
 267   0.0000       0.837050        22.7773 
 268   0.0000       0.851586        23.1728 
 269   0.0000       0.862780        23.4774 
 270   0.0000       0.867679        23.6107 
 271   0.0000       0.874474        23.7957 
 272   0.0000       0.902511        24.5586 
 273   0.0000       0.915774        24.9195 
 274   0.0000       0.926518        25.2118 
 275   0.0000       0.929140        25.2832 
 276   0.0000       0.941295        25.6139 
 277   0.0000       0.954210        25.9654 
 278   0.0000       0.959300        26.1039 
 279   0.0000       0.962867        26.2010 
 280   0.0000       0.963573        26.2202 
 281   0.0000       0.974392        26.5145 
 282   0.0000       0.974861        26.5273 
 283   0.0000       0.996564        27.1179 
 284   0.0000       1.005692        27.3663 
 285   0.0000       1.028729        27.9931 
 286   0.0000       1.036621        28.2079 
 287   0.0000       1.041183        28.3320 
 288   0.0000       1.049954        28.5707 
 289   0.0000       1.062779        28.9197 
 290   0.0000       1.064800        28.9747 
 291   0.0000       1.079820        29.3834 
 292   0.0000       1.086261        29.5587 
 293   0.0000       1.091864        29.7111 
 294   0.0000       1.094499        29.7828 
 295   0.0000       1.102111        29.9900 
 296   0.0000       1.115520        30.3548 
 297   0.0000       1.119367        30.4595 
 298   0.0000       1.123025        30.5591 
 299   0.0000       1.135361        30.8948 
 300   0.0000       1.141597        31.0644 
 301   0.0000       1.146464        31.1969 
 302   0.0000       1.148506        31.2524 
 303   0.0000       1.150922        31.3182 
 304   0.0000       1.161645        31.6100 
 305   0.0000       1.173945        31.9447 
 306   0.0000       1.179347        32.0917 
 307   0.0000       1.189288        32.3622 
 308   0.0000       1.190565        32.3969 
 309   0.0000       1.195880        32.5415 
 310   0.0000       1.206232        32.8232 
 311   0.0000       1.220819        33.2202 
 312   0.0000       1.230426        33.4816 
 313   0.0000       1.241565        33.7847 
 314   0.0000       1.259376        34.2694 
 315   0.0000       1.267910        34.5016 
 316   0.0000       1.275751        34.7149 
 317   0.0000       1.277174        34.7537 
 318   0.0000       1.278872        34.7999 
 319   0.0000       1.280233        34.8369 
 320   0.0000       1.288868        35.0719 
 321   0.0000       1.303873        35.4802 
 322   0.0000       1.304064        35.4854 
 323   0.0000       1.317382        35.8478 
 324   0.0000       1.321139        35.9500 
 325   0.0000       1.325821        36.0774 
 326   0.0000       1.327783        36.1308 
 327   0.0000       1.363880        37.1130 
 328   0.0000       1.374213        37.3942 
 329   0.0000       1.388943        37.7951 
 330   0.0000       1.397973        38.0408 
 331   0.0000       1.401935        38.1486 
 332   0.0000       1.421353        38.6770 
 333   0.0000       1.437707        39.1220 
 334   0.0000       1.438668        39.1482 
 335   0.0000       1.442695        39.2577 
 336   0.0000       1.448526        39.4164 
 337   0.0000       1.451537        39.4983 
 338   0.0000       1.460248        39.7354 
 339   0.0000       1.468970        39.9727 
 340   0.0000       1.476389        40.1746 
 341   0.0000       1.481253        40.3069 
 342   0.0000       1.489509        40.5316 
 343   0.0000       1.492229        40.6056 
 344   0.0000       1.494900        40.6783 
 345   0.0000       1.518654        41.3247 
 346   0.0000       1.524320        41.4788 
 347   0.0000       1.546435        42.0806 
 348   0.0000       1.569018        42.6952 
 349   0.0000       1.591266        43.3006 
 350   0.0000       1.603461        43.6324 
 351   0.0000       1.610494        43.8238 
 352   0.0000       1.622478        44.1499 
 353   0.0000       1.629012        44.3277 
 354   0.0000       1.633328        44.4451 
 355   0.0000       1.635887        44.5148 
 356   0.0000       1.642820        44.7034 
 357   0.0000       1.656315        45.0706 
 358   0.0000       1.660873        45.1947 
 359   0.0000       1.667134        45.3650 
 360   0.0000       1.667915        45.3863 
 361   0.0000       1.668968        45.4149 
 362   0.0000       1.677674        45.6518 
 363   0.0000       1.685762        45.8719 
 364   0.0000       1.689066        45.9618 
 365   0.0000       1.690522        46.0014 
 366   0.0000       1.691646        46.0320 
 367   0.0000       1.700556        46.2745 
 368   0.0000       1.703046        46.3422 
 369   0.0000       1.712788        46.6073 
 370   0.0000       1.717282        46.7296 
 371   0.0000       1.723155        46.8894 
 372   0.0000       1.726023        46.9675 
 373   0.0000       1.731600        47.1192 
 374   0.0000       1.737377        47.2764 
 375   0.0000       1.739799        47.3423 
 376   0.0000       1.743837        47.4522 
 377   0.0000       1.748974        47.5920 
 378   0.0000       1.753978        47.7282 
 379   0.0000       1.755223        47.7620 
 380   0.0000       1.767241        48.0891 
 381   0.0000       1.775347        48.3097 
 382   0.0000       1.779208        48.4147 
 383   0.0000       1.783987        48.5447 
 384   0.0000       1.786962        48.6257 
 385   0.0000       1.796008        48.8719 
 386   0.0000       1.799501        48.9669 
 387   0.0000       1.804055        49.0908 
 388   0.0000       1.816943        49.4415 
 389   0.0000       1.829652        49.7874 
 390   0.0000       1.836292        49.9680 
 391   0.0000       1.848769        50.3076 
 392   0.0000       1.860379        50.6235 
 393   0.0000       1.862582        50.6834 
 394   0.0000       1.864217        50.7279 
 395   0.0000       1.865773        50.7703 
 396   0.0000       1.876338        51.0578 
 397   0.0000       1.887798        51.3696 
 398   0.0000       1.898843        51.6702 
 399   0.0000       1.911309        52.0094 
 400   0.0000       1.914591        52.0987 
 401   0.0000       1.920852        52.2690 
 402   0.0000       1.923582        52.3433 
 403   0.0000       1.934952        52.6527 
 404   0.0000       1.941106        52.8202 
 405   0.0000       1.958311        53.2883 
 406   0.0000       1.972318        53.6695 
 407   0.0000       1.983583        53.9760 
 408   0.0000       1.988335        54.1053 
 409   0.0000       2.009391        54.6783 
 410   0.0000       2.017609        54.9019 
 411   0.0000       2.032772        55.3146 
 412   0.0000       2.044624        55.6370 
 413   0.0000       2.050314        55.7919 
 414   0.0000       2.058395        56.0118 
 415   0.0000       2.068651        56.2908 
 416   0.0000       2.082472        56.6670 
 417   0.0000       2.090837        56.8946 
 418   0.0000       2.100707        57.1632 
 419   0.0000       2.107560        57.3496 
 420   0.0000       2.120047        57.6894 
 421   0.0000       2.123539        57.7844 
 422   0.0000       2.126943        57.8771 
 423   0.0000       2.155377        58.6508 
 424   0.0000       2.162392        58.8417 
 425   0.0000       2.169995        59.0486 
 426   0.0000       2.180365        59.3307 
 427   0.0000       2.190296        59.6010 
 428   0.0000       2.194377        59.7120 
 429   0.0000       2.199643        59.8553 
 430   0.0000       2.205044        60.0023 
 431   0.0000       2.210266        60.1444 
 432   0.0000       2.221997        60.4636 
 433   0.0000       2.230079        60.6835 
 434   0.0000       2.237327        60.8808 
 435   0.0000       2.242206        61.0135 
 436   0.0000       2.248183        61.1762 
 437   0.0000       2.264115        61.6097 
 438   0.0000       2.271566        61.8125 
 439   0.0000       2.296753        62.4978 
 440   0.0000       2.306676        62.7678 
 441   0.0000       2.325817        63.2887 
 442   0.0000       2.332400        63.4678 
 443   0.0000       2.338153        63.6244 
 444   0.0000       2.345465        63.8233 
 445   0.0000       2.350611        63.9634 
 446   0.0000       2.384482        64.8851 
 447   0.0000       2.400108        65.3103 
 448   0.0000       2.427504        66.0557 
 449   0.0000       2.445245        66.5385 
 450   0.0000       2.452753        66.7428 
 451   0.0000       2.470315        67.2207 
 452   0.0000       2.476933        67.4008 
 453   0.0000       2.490449        67.7686 
 454   0.0000       2.500499        68.0420 
 455   0.0000       2.507842        68.2418 
 456   0.0000       2.518283        68.5260 
 457   0.0000       2.531292        68.8800 
 458   0.0000       2.554657        69.5157 
 459   0.0000       2.563739        69.7629 
 460   0.0000       2.571882        69.9845 
 461   0.0000       2.578347        70.1604 
 462   0.0000       2.587004        70.3960 
 463   0.0000       2.590264        70.4847 
 464   0.0000       2.599035        70.7233 
 465   0.0000       2.606381        70.9232 
 466   0.0000       2.609247        71.0012 
 467   0.0000       2.612402        71.0871 
 468   0.0000       2.633535        71.6621 
 469   0.0000       2.635580        71.7178 
 470   0.0000       2.640860        71.8615 
 471   0.0000       2.674315        72.7718 
 472   0.0000       2.692714        73.2725 
 473   0.0000       2.705138        73.6106 
 474   0.0000       2.722188        74.0745 
 475   0.0000       2.754352        74.9497 
 476   0.0000       2.759887        75.1003 
 477   0.0000       2.763907        75.2097 
 478   0.0000       2.770698        75.3945 
 479   0.0000       2.781234        75.6812 
 480   0.0000       2.783913        75.7541 
 481   0.0000       2.785576        75.7994 
 482   0.0000       2.799463        76.1773 
 483   0.0000       2.809849        76.4599 
 484   0.0000       2.827068        76.9284 
 485   0.0000       2.837296        77.2067 
 486   0.0000       2.850358        77.5622 
 487   0.0000       2.854304        77.6696 
 488   0.0000       2.860173        77.8293 
 489   0.0000       2.877823        78.3095 
 490   0.0000       2.896306        78.8125 
 491   0.0000       2.899571        78.9013 
 492   0.0000       2.905754        79.0696 
 493   0.0000       2.914622        79.3109 
 494   0.0000       2.921760        79.5051 
 495   0.0000       2.930972        79.7558 
 496   0.0000       2.936003        79.8927 
 497   0.0000       2.944075        80.1124 
 498   0.0000       2.949895        80.2707 
 499   0.0000       2.950704        80.2928 
 500   0.0000       2.962711        80.6195 
 501   0.0000       2.973681        80.9180 
 502   0.0000       2.975105        80.9567 
 503   0.0000       2.978559        81.0507 
 504   0.0000       2.997981        81.5792 
 505   0.0000       3.011568        81.9489 
 506   0.0000       3.021140        82.2094 
 507   0.0000       3.040346        82.7320 
 508   0.0000       3.051146        83.0259 
 509   0.0000       3.068772        83.5055 
 510   0.0000       3.094630        84.2092 
 511   0.0000       3.129833        85.1671 
 512   0.0000       3.133707        85.2725 
 513   0.0000       3.177368        86.4606 
 514   0.0000       3.200383        87.0869 
 515   0.0000       3.230513        87.9067 
 516   0.0000       3.243972        88.2730 
 517   0.0000       3.283569        89.3505 
 518   0.0000       3.303999        89.9064 
 519   0.0000       3.380432        91.9862 
 520   0.0000       3.405253        92.6616 
 521   0.0000       3.427216        93.2593 
 522   0.0000       3.439660        93.5979 
 523   0.0000       3.451345        93.9159 
 524   0.0000       3.496867        95.1546 
 525   0.0000       3.517443        95.7145 
 526   0.0000       3.535856        96.2155 
 527   0.0000       3.569994        97.1445 
 528   0.0000       3.593871        97.7942 
 529   0.0000       3.611816        98.2825 
 530   0.0000       3.692852       100.4876 
 531   0.0000       3.738755       101.7367 
 532   0.0000       3.801978       103.4571 

                    ********************************
                    * MULLIKEN POPULATION ANALYSIS *
                    ********************************

-----------------------
MULLIKEN ATOMIC CHARGES
-----------------------
   0 H :   -0.025751
   1 C :   -0.012045
   2 C :    0.177575
   3 O :   -0.238330
   4 C :    0.243629
   5 O :   -0.198223
   6 C :   -0.063385
   7 C :    0.007835
   8 H :   -0.010865
   9 C :    0.014138
  10 C :   -0.017777
  11 O :   -0.191452
  12 C :    0.074148
  13 H :    0.050345
  14 H :    0.050564
  15 H :    0.028548
  16 C :   -0.078394
  17 H :   -0.010386
  18 C :    0.139442
  19 N :   -0.004888
  20 H :    0.135220
  21 C :   -0.001829
  22 S :   -0.338002
  23 N :   -0.121689
  24 H :    0.139301
  25 C :    0.118791
  26 H :    0.026902
  27 H :    0.032047
  28 C :   -0.036918
  29 H :    0.031164
  30 H :    0.024200
  31 H :    0.030225
  32 C :   -0.000262
  33 H :   -0.012442
  34 C :   -0.035041
  35 H :   -0.000012
  36 C :    0.172527
  37 O :   -0.213940
  38 C :    0.472914
  39 F :   -0.155247
  40 F :   -0.132126
  41 F :   -0.161664
  42 C :   -0.084663
  43 H :   -0.017040
  44 C :    0.194902
  45 O :   -0.288079
  46 C :    0.167717
  47 H :    0.036594
  48 H :    0.037387
  49 H :    0.044336
Sum of atomic charges:    0.0000000

--------------------------------
MULLIKEN REDUCED ORBITAL CHARGES
--------------------------------
  0 H s       :     1.000988  s :     1.000988
      pz      :     0.013584  p :     0.024763
      px      :     0.005904
      py      :     0.005275
  1 C s       :     3.342069  s :     3.342069
      pz      :     0.719557  p :     2.641557
      px      :     0.972430
      py      :     0.949570
      dz2     :     0.006645  d :     0.028419
      dxz     :     0.005363
      dyz     :     0.006519
      dx2y2   :     0.005395
      dxy     :     0.004497
  2 C s       :     2.960218  s :     2.960218
      pz      :     0.984568  p :     2.791887
      px      :     0.942990
      py      :     0.864330
      dz2     :     0.015053  d :     0.070320
      dxz     :     0.013540
      dyz     :     0.015822
      dx2y2   :     0.012495
      dxy     :     0.013409
  3 O s       :     3.718033  s :     3.718033
      pz      :     1.644798  p :     4.504000
      px      :     1.355097
      py      :     1.504105
      dz2     :     0.002584  d :     0.016297
      dxz     :     0.004014
      dyz     :     0.002500
      dx2y2   :     0.004038
      dxy     :     0.003161
  4 C s       :     3.006027  s :     3.006027
      pz      :     0.851099  p :     2.619562
      px      :     0.831050
      py      :     0.937413
      dz2     :     0.026861  d :     0.130782
      dxz     :     0.032571
      dyz     :     0.021035
      dx2y2   :     0.029776
      dxy     :     0.020539
  5 O s       :     3.743698  s :     3.743698
      pz      :     1.353937  p :     4.436692
      px      :     1.590436
      py      :     1.492319
      dz2     :     0.004868  d :     0.017833
      dxz     :     0.003041
      dyz     :     0.005104
      dx2y2   :     0.002120
      dxy     :     0.002701
  6 C s       :     3.100350  s :     3.100350
      pz      :     0.971683  p :     2.924220
      px      :     0.994920
      py      :     0.957617
      dz2     :     0.008661  d :     0.038815
      dxz     :     0.007734
      dyz     :     0.007198
      dx2y2   :     0.007300
      dxy     :     0.007922
  7 C s       :     3.306947  s :     3.306947
      pz      :     0.899903  p :     2.652928
      px      :     0.835606
      py      :     0.917418
      dz2     :     0.006288  d :     0.032291
      dxz     :     0.006133
      dyz     :     0.006874
      dx2y2   :     0.006607
      dxy     :     0.006390
  8 H s       :     0.985843  s :     0.985843
      pz      :     0.007302  p :     0.025022
      px      :     0.011983
      py      :     0.005737
  9 C s       :     3.080603  s :     3.080603
      pz      :     0.977555  p :     2.866552
      px      :     0.955674
      py      :     0.933323
      dz2     :     0.006732  d :     0.038707
      dxz     :     0.006877
      dyz     :     0.008527
      dx2y2   :     0.008814
      dxy     :     0.007756
 10 C s       :     3.157834  s :     3.157834
      pz      :     0.927645  p :     2.766787
      px      :     0.948425
      py      :     0.890717
      dz2     :     0.013626  d :     0.093156
      dxz     :     0.013305
      dyz     :     0.023128
      dx2y2   :     0.023815
      dxy     :     0.019281
 11 O s       :     3.744699  s :     3.744699
      pz      :     1.600669  p :     4.429704
      px      :     1.482551
      py      :     1.346484
      dz2     :     0.002072  d :     0.017049
      dxz     :     0.001944
      dyz     :     0.003212
      dx2y2   :     0.004807
      dxy     :     0.005014
 12 C s       :     2.906341  s :     2.906341
      pz      :     0.994987  p :     2.997954
      px      :     0.996298
      py      :     1.006669
      dz2     :     0.002175  d :     0.021557
      dxz     :     0.006660
      dyz     :     0.004863
      dx2y2   :     0.005869
      dxy     :     0.001990
 13 H s       :     0.923704  s :     0.923704
      pz      :     0.008211  p :     0.025951
      px      :     0.011631
      py      :     0.006109
 14 H s       :     0.923435  s :     0.923435
      pz      :     0.007273  p :     0.026001
      px      :     0.005578
      py      :     0.013150
 15 H s       :     0.947323  s :     0.947323
      pz      :     0.010222  p :     0.024129
      px      :     0.004643
      py      :     0.009264
 16 C s       :     3.368268  s :     3.368268
      pz      :     0.908863  p :     2.678853
      px      :     0.916412
      py      :     0.853578
      dz2     :     0.007679  d :     0.031274
      dxz     :     0.006524
      dyz     :     0.005993
      dx2y2   :     0.004887
      dxy     :     0.006192
 17 H s       :     0.984684  s :     0.984684
      pz      :     0.006498  p :     0.025702
      px      :     0.007450
      py      :     0.011753
 18 C s       :     2.939816  s :     2.939816
      pz      :     0.946430  p :     2.861953
      px      :     0.915594
      py      :     0.999928
      dz2     :     0.013750  d :     0.058790
      dxz     :     0.013105
      dyz     :     0.010115
      dx2y2   :     0.012661
      dxy     :     0.009159
 19 N s       :     3.307270  s :     3.307270
      pz      :     1.370097  p :     3.676441
      px      :     1.245624
      py      :     1.060720
      dz2     :     0.002828  d :     0.021177
      dxz     :     0.003380
      dyz     :     0.004714
      dx2y2   :     0.005037
      dxy     :     0.005219
 20 H s       :     0.818861  s :     0.818861
      pz      :     0.015290  p :     0.045919
      px      :     0.012504
      py      :     0.018125
 21 C s       :     3.062751  s :     3.062751
      pz      :     0.955919  p :     2.849766
      px      :     0.970146
      py      :     0.923700
      dz2     :     0.012474  d :     0.089313
      dxz     :     0.008257
      dyz     :     0.021702
      dx2y2   :     0.019161
      dxy     :     0.027720
 22 S s       :     5.942264  s :     5.942264
      pz      :     3.409503  p :    10.345852
      px      :     3.126604
      py      :     3.809745
      dz2     :     0.007805  d :     0.049886
      dxz     :     0.020336
      dyz     :     0.001936
      dx2y2   :     0.015104
      dxy     :     0.004704
 23 N s       :     3.353853  s :     3.353853
      pz      :     1.504422  p :     3.745900
      px      :     1.152156
      py      :     1.089321
      dz2     :     0.002042  d :     0.021937
      dxz     :     0.002113
      dyz     :     0.005525
      dx2y2   :     0.006920
      dxy     :     0.005336
 24 H s       :     0.814347  s :     0.814347
      pz      :     0.015178  p :     0.046351
      px      :     0.023752
      py      :     0.007421
 25 C s       :     2.984106  s :     2.984106
      pz      :     1.019492  p :     2.850391
      px      :     1.024864
      py      :     0.806035
      dz2     :     0.007829  d :     0.046712
      dxz     :     0.006554
      dyz     :     0.010856
      dx2y2   :     0.011096
[...]
      dxy     :     0.015332
 24 H s       :     0.778927  s :     0.778927
      pz      :     0.042903  p :     0.130156
      px      :     0.069114
      py      :     0.018138
 25 C s       :     2.833251  s :     2.833251
      pz      :     1.070911  p :     3.018289
      px      :     1.050772
      py      :     0.896606
      dz2     :     0.018056  d :     0.113921
      dxz     :     0.018310
      dyz     :     0.026348
      dx2y2   :     0.025825
      dxy     :     0.025382
 26 H s       :     0.903485  s :     0.903485
      pz      :     0.036187  p :     0.067211
      px      :     0.015466
      py      :     0.015557
 27 H s       :     0.913941  s :     0.913941
      pz      :     0.024210  p :     0.075795
      px      :     0.038403
      py      :     0.013183
 28 C s       :     2.839690  s :     2.839690
      pz      :     1.055320  p :     3.148833
      px      :     1.045319
      py      :     1.048194
      dz2     :     0.013653  d :     0.068947
      dxz     :     0.017219
      dyz     :     0.010638
      dx2y2   :     0.013457
      dxy     :     0.013980
 29 H s       :     0.904680  s :     0.904680
      pz      :     0.035699  p :     0.068109
      px      :     0.014859
      py      :     0.017551
 30 H s       :     0.903782  s :     0.903782
      pz      :     0.021074  p :     0.068252
      px      :     0.033416
      py      :     0.013762
 31 H s       :     0.897859  s :     0.897859
      pz      :     0.013924  p :     0.068118
      px      :     0.017526
      py      :     0.036669
 32 C s       :     2.860879  s :     2.860879
      pz      :     1.012390  p :     3.035555
      px      :     1.005966
      py      :     1.017199
      dz2     :     0.013612  d :     0.087100
      dxz     :     0.016383
      dyz     :     0.017783
      dx2y2   :     0.018837
      dxy     :     0.020485
 33 H s       :     0.885126  s :     0.885126
      pz      :     0.034223  p :     0.075110
      px      :     0.015125
      py      :     0.025762
 34 C s       :     2.856652  s :     2.856652
      pz      :     1.050155  p :     3.148486
      px      :     1.051108
      py      :     1.047223
      dz2     :     0.023677  d :     0.085788
      dxz     :     0.016328
      dyz     :     0.020370
      dx2y2   :     0.011482
      dxy     :     0.013930
 35 H s       :     0.887163  s :     0.887163
      pz      :     0.034397  p :     0.078706
      px      :     0.020489
      py      :     0.023820
 36 C s       :     2.839143  s :     2.839143
      pz      :     0.863799  p :     2.934038
      px      :     1.021253
      py      :     1.048985
      dz2     :     0.042148  d :     0.161031
      dxz     :     0.037345
      dyz     :     0.042970
      dx2y2   :     0.021672
      dxy     :     0.016898
 37 O s       :     3.421309  s :     3.421309
      pz      :     1.229836  p :     4.578398
      px      :     1.683050
      py      :     1.665511
      dz2     :     0.007704  d :     0.033168
      dxz     :     0.009176
      dyz     :     0.010970
      dx2y2   :     0.002283
      dxy     :     0.003035
 38 C s       :     2.813225  s :     2.813225
      pz      :     0.898151  p :     2.619079
      px      :     0.858507
      py      :     0.862421
      dz2     :     0.098643  d :     0.471782
      dxz     :     0.088514
      dyz     :     0.094371
      dx2y2   :     0.120301
      dxy     :     0.069953
 39 F s       :     3.741770  s :     3.741770
      pz      :     1.880988  p :     5.301639
      px      :     1.527998
      py      :     1.892654
      dz2     :     0.002016  d :     0.012991
      dxz     :     0.002644
      dyz     :     0.000156
      dx2y2   :     0.006096
      dxy     :     0.002079
 40 F s       :     3.730841  s :     3.730841
      pz      :     1.660098  p :     5.293279
      px      :     1.820862
      py      :     1.812318
      dz2     :     0.002701  d :     0.013235
      dxz     :     0.003719
      dyz     :     0.004062
      dx2y2   :     0.001037
      dxy     :     0.001715
 41 F s       :     3.743280  s :     3.743280
      pz      :     1.888892  p :     5.303355
      px      :     1.875940
      py      :     1.538523
      dz2     :     0.002088  d :     0.012842
      dxz     :     0.000221
      dyz     :     0.002249
      dx2y2   :     0.005483
      dxy     :     0.002801
 42 C s       :     2.856888  s :     2.856888
      pz      :     1.038027  p :     3.143724
      px      :     1.055633
      py      :     1.050064
      dz2     :     0.025282  d :     0.083444
      dxz     :     0.019824
      dyz     :     0.024096
      dx2y2   :     0.004997
      dxy     :     0.009245
 43 H s       :     0.878092  s :     0.878092
      pz      :     0.012797  p :     0.076934
      px      :     0.029280
      py      :     0.034857
 44 C s       :     2.831843  s :     2.831843
      pz      :     0.960664  p :     2.940508
      px      :     0.989756
      py      :     0.990087
      dz2     :     0.052582  d :     0.179767
      dxz     :     0.040318
      dyz     :     0.047573
      dx2y2   :     0.020450
      dxy     :     0.018845
 45 O s       :     3.435151  s :     3.435151
      pz      :     1.544566  p :     4.603400
      px      :     1.588608
      py      :     1.470225
      dz2     :     0.008861  d :     0.032221
      dxz     :     0.005455
      dyz     :     0.007750
      dx2y2   :     0.004177
      dxy     :     0.005978
 46 C s       :     2.848021  s :     2.848021
      pz      :     1.092350  p :     2.952135
      px      :     0.966232
      py      :     0.893553
      dz2     :     0.020069  d :     0.115645
      dxz     :     0.014426
      dyz     :     0.019801
      dx2y2   :     0.028228
      dxy     :     0.033121
 47 H s       :     0.907644  s :     0.907644
      pz      :     0.018893  p :     0.067844
      px      :     0.037387
      py      :     0.011563
 48 H s       :     0.907694  s :     0.907694
      pz      :     0.021618  p :     0.067815
      px      :     0.015778
      py      :     0.030418
 49 H s       :     0.900906  s :     0.900906
      pz      :     0.041011  p :     0.065595
      px      :     0.011985
      py      :     0.012598


                      *****************************
                      * MAYER POPULATION ANALYSIS *
                      *****************************

  NA   - Mulliken gross atomic population
  ZA   - Total nuclear charge
  QA   - Mulliken gross atomic charge
  VA   - Mayer's total valence
  BVA  - Mayer's bonded valence
  FA   - Mayer's free valence

  ATOM       NA         ZA         QA         VA         BVA        FA
  0 H      1.0156     1.0000    -0.0156     1.0132     1.0132     0.0000
  1 C      6.0180     6.0000    -0.0180     3.7722     3.7722     0.0000
  2 C      5.8263     6.0000     0.1737     3.8691     3.8691     0.0000
  3 O      8.2342     8.0000    -0.2342     2.2786     2.2786     0.0000
  4 C      5.7455     6.0000     0.2545     4.1849     4.1849     0.0000
  5 O      8.2207     8.0000    -0.2207     2.3022     2.3022    -0.0000
  6 C      6.0632     6.0000    -0.0632     3.7052     3.7052    -0.0000
  7 C      5.9856     6.0000     0.0144     3.7793     3.7793    -0.0000
  8 H      0.9972     1.0000     0.0028     1.0322     1.0322     0.0000
  9 C      5.9910     6.0000     0.0090     3.6632     3.6632    -0.0000
 10 C      6.0126     6.0000    -0.0126     4.2489     4.2489     0.0000
 11 O      8.2166     8.0000    -0.2166     2.2981     2.2981     0.0000
 12 C      5.9270     6.0000     0.0730     3.8981     3.8981    -0.0000
 13 H      0.9383     1.0000     0.0617     0.9975     0.9975     0.0000
 14 H      0.9383     1.0000     0.0617     0.9976     0.9976    -0.0000
 15 H      0.9754     1.0000     0.0246     1.0183     1.0183    -0.0000
 16 C      6.0694     6.0000    -0.0694     3.8000     3.8000    -0.0000
 17 H      1.0092     1.0000    -0.0092     1.0517     1.0517    -0.0000
 18 C      5.8643     6.0000     0.1357     3.8512     3.8512     0.0000
 19 N      7.0050     7.0000    -0.0050     3.2924     3.2924    -0.0000
 20 H      0.8534     1.0000     0.1466     1.0219     1.0219    -0.0000
 21 C      5.9827     6.0000     0.0173     4.0988     4.0988     0.0000
 22 S     16.4187    16.0000    -0.4187     1.8069     1.8069     0.0000
 23 N      7.1149     7.0000    -0.1149     3.4215     3.4215     0.0000
 24 H      0.8387     1.0000     0.1613     1.0011     1.0011     0.0000
 25 C      5.8817     6.0000     0.1183     3.9962     3.9962    -0.0000
 26 H      0.9657     1.0000     0.0343     0.9791     0.9791     0.0000
 27 H      0.9815     1.0000     0.0185     1.0562     1.0562     0.0000
 28 C      6.0370     6.0000    -0.0370     4.0386     4.0386    -0.0000
 29 H      0.9717     1.0000     0.0283     0.9932     0.9932     0.0000
 30 H      0.9649     1.0000     0.0351     0.9905     0.9905    -0.0000
 31 H      0.9674     1.0000     0.0326     0.9906     0.9906     0.0000
 32 C      5.9978     6.0000     0.0022     3.8128     3.8128     0.0000
 33 H      1.0077     1.0000    -0.0077     1.0254     1.0254    -0.0000
 34 C      6.0525     6.0000    -0.0525     3.7525     3.7525     0.0000
 35 H      0.9982     1.0000     0.0018     1.0522     1.0522    -0.0000
 36 C      5.8276     6.0000     0.1724     3.8569     3.8569     0.0000
 37 O      8.2144     8.0000    -0.2144     2.2433     2.2433    -0.0000
 38 C      5.5254     6.0000     0.4746     4.6884     4.6884    -0.0000
 39 F      9.1597     9.0000    -0.1597     1.1984     1.1984     0.0000
 40 F      9.1352     9.0000    -0.1352     1.2180     1.2180    -0.0000
 41 F      9.1629     9.0000    -0.1629     1.1947     1.1947    -0.0000
 42 C      6.0852     6.0000    -0.0852     3.7473     3.7473    -0.0000
 43 H      1.0026     1.0000    -0.0026     1.0208     1.0208     0.0000
 44 C      5.8060     6.0000     0.1940     3.8631     3.8631     0.0000
 45 O      8.2938     8.0000    -0.2938     2.2685     2.2685     0.0000
 46 C      5.8378     6.0000     0.1622     3.9070     3.9070    -0.0000
 47 H      0.9550     1.0000     0.0450     0.9896     0.9896     0.0000
 48 H      0.9553     1.0000     0.0447     0.9897     0.9897     0.0000
 49 H      0.9514     1.0000     0.0486     0.9914     0.9914     0.0000

  Mayer bond orders larger than 0.100000
B(  0-H ,  1-C ) :   1.0125 B(  1-C ,  2-C ) :   1.3922 B(  1-C , 44-C ) :   1.2776 
B(  2-C ,  3-O ) :   0.9532 B(  2-C , 34-C ) :   1.2860 B(  3-O ,  4-C ) :   1.1573 
B(  4-C ,  5-O ) :   2.0508 B(  4-C ,  6-C ) :   0.9309 B(  6-C ,  7-C ) :   1.3063 
B(  6-C , 32-C ) :   1.3692 B(  7-C ,  8-H ) :   0.9857 B(  7-C ,  9-C ) :   1.3321 
B(  9-C , 10-C ) :   0.9144 B(  9-C , 16-C ) :   1.3459 B( 10-C , 11-O ) :   2.1049 
B( 10-C , 12-C ) :   1.1043 B( 12-C , 13-H ) :   0.9247 B( 12-C , 14-H ) :   0.9234 
B( 12-C , 15-H ) :   0.9369 B( 16-C , 17-H ) :   0.9832 B( 16-C , 18-C ) :   1.2842 
B( 18-C , 19-N ) :   1.0985 B( 18-C , 32-C ) :   1.2886 B( 19-N , 20-H ) :   0.8865 
B( 19-N , 21-C ) :   1.1899 B( 21-C , 22-S ) :   1.4309 B( 21-C , 23-N ) :   1.3477 
B( 22-S , 27-H ) :   0.1017 B( 23-N , 24-H ) :   0.8993 B( 23-N , 25-C ) :   0.9732 
B( 25-C , 26-H ) :   0.9376 B( 25-C , 27-H ) :   0.9135 B( 25-C , 28-C ) :   1.1179 
B( 28-C , 29-H ) :   0.9676 B( 28-C , 30-H ) :   0.9683 B( 28-C , 31-H ) :   0.9605 
B( 32-C , 33-H ) :   0.9936 B( 34-C , 35-H ) :   0.9847 B( 34-C , 36-C ) :   1.3162 
B( 36-C , 37-O ) :   0.9718 B( 36-C , 42-C ) :   1.3381 B( 37-O , 38-C ) :   1.1940 
B( 38-C , 39-F ) :   1.1263 B( 38-C , 40-F ) :   1.1687 B( 38-C , 41-F ) :   1.1170 
B( 42-C , 43-H ) :   1.0065 B( 42-C , 44-C ) :   1.2660 B( 44-C , 45-O ) :   1.1705 
B( 45-O , 46-C ) :   0.9422 B( 46-C , 47-H ) :   0.9653 B( 46-C , 48-H ) :   0.9654 
B( 46-C , 49-H ) :   0.9731 


------------------
HIRSHFELD ANALYSIS
------------------

Total integrated alpha density =    118.000194513
Total integrated beta density  =    118.000194513

  ATOM     CHARGE      SPIN    
   0 H    0.049457    0.000000
   1 C   -0.066369    0.000000
   2 C    0.078652    0.000000
   3 O   -0.083555    0.000000
   4 C    0.216286    0.000000
   5 O   -0.271542    0.000000
   6 C   -0.012115    0.000000
   7 C   -0.024625    0.000000
   8 H    0.044402    0.000000
   9 C   -0.010849    0.000000
  10 C    0.166770    0.000000
  11 O   -0.268535    0.000000
  12 C   -0.070041    0.000000
  13 H    0.052075    0.000000
  14 H    0.052177    0.000000
  15 H    0.039024    0.000000
  16 C   -0.027514    0.000000
  17 H    0.038792    0.000000
  18 C    0.063157    0.000000
  19 N   -0.069785    0.000000
  20 H    0.138868    0.000000
  21 C    0.121034    0.000000
  22 S   -0.401806    0.000000
  23 N   -0.062682    0.000000
  24 H    0.133773    0.000000
  25 C    0.025657    0.000000
  26 H    0.037478    0.000000
  27 H    0.019651    0.000000
  28 C   -0.065141    0.000000
  29 H    0.029424    0.000000
  30 H    0.033327    0.000000
  31 H    0.037065    0.000000
  32 C   -0.017950    0.000000
  33 H    0.050244    0.000000
  34 C   -0.084434    0.000000
  35 H    0.032902    0.000000
  36 C    0.076306    0.000000
  37 O   -0.123790    0.000000
  38 C    0.336504    0.000000
  39 F   -0.108988    0.000000
  40 F   -0.105059    0.000000
  41 F   -0.109904    0.000000
  42 C   -0.071502    0.000000
  43 H    0.050309    0.000000
  44 C    0.085547    0.000000
  45 O   -0.123319    0.000000
  46 C    0.032243    0.000000
  47 H    0.043460    0.000000
  48 H    0.043367    0.000000
  49 H    0.051164    0.000000

  TOTAL  -0.000389    0.000000

-------
TIMINGS
-------

Total SCF time: 0 days 0 hours 4 min 24 sec 

Total time                  ....     264.320 sec
Sum of individual times     ....     237.970 sec  ( 90.0%)

Fock matrix formation       ....     222.860 sec  ( 84.3%)
  Split-RI-J                ....      48.209 sec  ( 21.6% of F)
  XC integration            ....      69.885 sec  ( 31.4% of F)
    Basis function eval.    ....      19.631 sec  ( 28.1% of XC)
    Density eval.           ....      11.332 sec  ( 16.2% of XC)
    XC-Functional eval.     ....       4.357 sec  (  6.2% of XC)
    XC-Potential eval.      ....       7.917 sec  ( 11.3% of XC)
Diagonalization             ....       0.143 sec  (  0.1%)
Density matrix formation    ....       0.128 sec  (  0.0%)
Population analysis         ....       4.026 sec  (  1.5%)
Initial guess               ....       0.235 sec  (  0.1%)
Orbital Transformation      ....       0.000 sec  (  0.0%)
Orbital Orthonormalization  ....       0.067 sec  (  0.0%)
DIIS solution               ....       0.042 sec  (  0.0%)
SOSCF solution              ....       3.511 sec  (  1.3%)
Grid generation             ....       7.025 sec  (  2.7%)

Maximum memory used throughout the entire SCF-calculation: 238.1 MB


-------------------------------------------------------------------------------
                          DFT DISPERSION CORRECTION                            
                                                                               
                              DFTD3 V3.1  Rev 1                                
                          USING Becke-Johnson damping                          
-------------------------------------------------------------------------------
The revPBE functional is recognized
Active option DFTDOPT                   ...         4   

molecular C6(AA) [au] = 29900.954935 


            DFT-D V3
 parameters
 s6 scaling factor         :     1.0000 
 a1 scaling factor         :     0.5238 
 s8 scaling factor         :     2.3550 
 a2 scaling factor         :     3.5016 
 ad hoc parameters k1-k3   :    16.0000     1.3333    -4.0000 

 Edisp/kcal,au: -95.648719609097  -0.152425920818 
 E6   /kcal   : -39.008935002 
 E8   /kcal   : -56.639784607 
 % E8         :  59.216458765 

-------------------------   ----------------
Dispersion correction           -0.152425921
-------------------------   ----------------


-------------------------   --------------------
FINAL SINGLE POINT ENERGY     -1955.327407071657
-------------------------   --------------------


                            ***************************************
                            *     ORCA property calculations      *
                            ***************************************

                                    ---------------------
                                    Active property flags
                                    ---------------------
   (+) Dipole Moment


------------------------------------------------------------------------------
                       ORCA ELECTRIC PROPERTIES CALCULATION
------------------------------------------------------------------------------

Dipole Moment Calculation                       ... on
Quadrupole Moment Calculation                   ... off
Polarizability Calculation                      ... off
GBWName                                         ... /home/sk77/PycharmProjects/omg_database_publication/run_calculation/calculation_results/pareto_greedy/0/reaction_10005258/opt_n_1/conformer_4/property_cosmo.gbw
Electron density                                ... /home/sk77/PycharmProjects/omg_database_publication/run_calculation/calculation_results/pareto_greedy/0/reaction_10005258/opt_n_1/conformer_4/property_cosmo.scfp
The origin for moment calculation is the CENTER OF MASS  = ( 0.089041, -0.943978  0.954054)

-------------
DIPOLE MOMENT
-------------
                                X             Y             Z
Electronic contribution:     17.58213     -34.16653      25.65644
Nuclear contribution   :    -14.22589      33.51355     -28.02224
                        -----------------------------------------
Total Dipole Moment    :      3.35624      -0.65298      -2.36580
                        -----------------------------------------
Magnitude (a.u.)       :      4.15785
Magnitude (Debye)      :     10.56842



--------------------
Rotational spectrum 
--------------------
 
Rotational constants in cm-1:     0.006508     0.001696     0.001444 
Rotational constants in MHz :   195.097284    50.842786    43.290445 

 Dipole components along the rotational axes: 
x,y,z [a.u.] :    -2.560472    -2.904196     1.515705 
x,y,z [Debye]:    -6.508203    -7.381880     3.852616 

 
------------------------------------------------------------------------------
                      ORCA CHELPG CHARGES GENERATION
------------------------------------------------------------------------------

GBW file                           ... /home/sk77/PycharmProjects/omg_database_publication/run_calculation/calculation_results/pareto_greedy/0/reaction_10005258/opt_n_1/conformer_4/property_cosmo.gbw
Density                            ... /home/sk77/PycharmProjects/omg_database_publication/run_calculation/calculation_results/pareto_greedy/0/reaction_10005258/opt_n_1/conformer_4/property_cosmo.scfp

Reading the GBW file               ... done
Reading the density                ... done

Grid spacing                       ...     0.300000
Point Cut-Off                      ...     2.800000
Van-der-Waals Radii                ...        COSMO
Total charge                       ...            0


Number of points X direction       ...           55
Number of points Y direction       ...           66
Number of points Z direction       ...           48
Maximum number of possible points  ...       174240
Final number of points             ...        26662



Timings for individual modules:

Sum of individual times         ...      293.924 sec (=   4.899 min)
GTO integral calculation        ...        5.905 sec (=   0.098 min)   2.0 %
SCF iterations                  ...      264.788 sec (=   4.413 min)  90.1 %
CHELPG charge generation        ...       23.231 sec (=   0.387 min)   7.9 %



                             ****ORCA TERMINATED NORMALLY****
TOTAL RUN TIME: 0 days 0 hours 36 minutes 48 seconds 451 msec
