50
 energy: -96.270814755568 gnorm: 0.000334568177 xtb: 6.6.1 (8d0f1dd)
H           -0.82485590900234       -3.06597409631863       -0.81302664009086
C            0.13336104456018       -3.35633925001923       -0.41845736974547
C            1.04490908029314       -2.36063439779749       -0.10308870740100
O            0.61391874305774       -1.05631162036657       -0.28971008032139
C            1.39799704311605       -0.13756816164420       -0.88133292455663
O            2.51538238507617       -0.36314538845710       -1.28790975835659
C            0.71502379925186        1.17217693055517       -1.01265227497550
C            1.41184264845385        2.20969004278500       -1.62011230695758
H            2.42693275218812        2.05275163100220       -1.95086899143096
C            0.79919518043784        3.44397563309905       -1.82867790123073
C            1.58203304808918        4.50816954110117       -2.52306707398623
O            2.71482421306461        4.29219996724476       -2.91395574174144
C            0.91556610324476        5.83885943110086       -2.71977005643286
H            0.02003932000050        5.71576725840043       -3.32328449469516
H            0.63394301252872        6.25888800262941       -1.75807193346719
H            1.60151902989627        6.51310077988881       -3.22474494584206
C           -0.51012257498352        3.62788885408889       -1.39966153034209
H           -1.01194803944518        4.56832612207691       -1.55658498834356
C           -1.20998574931104        2.60040032015587       -0.75986621343902
N           -2.52795875002084        2.86023935907755       -0.39499412053157
H           -2.99474255381064        3.57553056348405       -0.93774543230492
C           -3.31915582015097        2.32605991644950        0.57507768747586
S           -4.95362777850693        2.69776077963197        0.51156317362469
N           -2.76959379937640        1.56052537056717        1.51793523242389
H           -1.76016856320963        1.55644264403513        1.58470103092418
C           -3.46837416466039        1.06779335238731        2.68345492848688
H           -4.53403064763360        1.05105139259086        2.44946747460889
H           -3.12763480499030        0.04908865073263        2.87670611227051
C           -3.20993587640047        1.94789874590643        3.90408645758417
H           -2.14749256206573        1.98203063601831        4.13104991279215
H           -3.56365597153911        2.95893885616487        3.71592953703393
H           -3.74034468896359        1.54843325000404        4.76236115399704
C           -0.59740382070669        1.36054744596667       -0.58280200153938
H           -1.13419056185174        0.52770517890086       -0.16108213657518
C            2.30028399856059       -2.64790873941593        0.41629745528601
H            2.98046141872544       -1.84719657878802        0.65157051365653
C            2.62871802923026       -3.98289287217933        0.58859965029564
O            3.87320168447557       -4.41724898093053        1.09919516533278
C            4.85497366016923       -3.57096239910804        1.28672557144835
F            5.22977992625535       -2.88334206626828        0.19219199344877
F            4.62301708678613       -2.63379609102637        2.23004795309249
F            5.93283867378164       -4.24064810414708        1.69613884960265
C            1.74655989130947       -4.99849003963068        0.28211118698352
H            2.03163558234606       -6.02504035265849        0.42970612331859
C            0.47898463880798       -4.69190629705030       -0.22208771186829
O           -0.32125693056045       -5.73845709764378       -0.48921202526217
C           -1.62176807227381       -5.49254347927650       -1.00534887714824
H           -2.21535555443617       -4.90205231209091       -0.30507804017192
H           -1.57097864812773       -4.98609261886200       -1.97101856970406
H           -2.07235015166026       -6.47366971238096       -1.13069431520639
