
                                 *****************
                                 * O   R   C   A *
                                 *****************

                                            #,                                       
                                            ###                                      
                                            ####                                     
                                            #####                                    
                                            ######                                   
                                           ########,                                 
                                     ,,################,,,,,                         
                               ,,#################################,,                 
                          ,,##########################################,,             
                       ,#########################################, ''#####,          
                    ,#############################################,,   '####,        
                  ,##################################################,,,,####,       
                ,###########''''           ''''###############################       
              ,#####''   ,,,,##########,,,,          '''####'''          '####       
            ,##' ,,,,###########################,,,                        '##       
           ' ,,###''''                  '''############,,,                           
         ,,##''                                '''############,,,,        ,,,,,,###''
      ,#''                                            '''#######################'''  
     '                                                          ''''####''''         
             ,#######,   #######,   ,#######,      ##                                
            ,#'     '#,  ##    ##  ,#'     '#,    #''#        ######   ,####,        
            ##       ##  ##   ,#'  ##            #'  '#       #        #'  '#        
            ##       ##  #######   ##           ,######,      #####,   #    #        
            '#,     ,#'  ##    ##  '#,     ,#' ,#      #,         ##   #,  ,#        
             '#######'   ##     ##  '#######'  #'      '#     #####' # '####'        



                  #######################################################
                  #                        -***-                        #
                  #          Department of theory and spectroscopy      #
                  #    Directorship and core code : Frank Neese         #
                  #        Max Planck Institute fuer Kohlenforschung    #
                  #                Kaiser Wilhelm Platz 1               #
                  #                 D-45470 Muelheim/Ruhr               #
                  #                      Germany                        #
                  #                                                     #
                  #                  All rights reserved                #
                  #                        -***-                        #
                  #######################################################


                         Program Version 5.0.3 -  RELEASE  -


 With contributions from (in alphabetic order):
   Daniel Aravena         : Magnetic Suceptibility
   Michael Atanasov       : Ab Initio Ligand Field Theory (pilot matlab implementation)
   Alexander A. Auer      : GIAO ZORA, VPT2 properties, NMR spectrum
   Ute Becker             : Parallelization
   Giovanni Bistoni       : ED, misc. LED, open-shell LED, HFLD
   Martin Brehm           : Molecular dynamics
   Dmytro Bykov           : SCF Hessian
   Vijay G. Chilkuri      : MRCI spin determinant printing, contributions to CSF-ICE
   Dipayan Datta          : RHF DLPNO-CCSD density
   Achintya Kumar Dutta   : EOM-CC, STEOM-CC
   Dmitry Ganyushin       : Spin-Orbit,Spin-Spin,Magnetic field MRCI
   Miquel Garcia          : C-PCM and meta-GGA Hessian, CC/C-PCM, Gaussian charge scheme
   Yang Guo               : DLPNO-NEVPT2, F12-NEVPT2, CIM, IAO-localization
   Andreas Hansen         : Spin unrestricted coupled pair/coupled cluster methods
   Benjamin Helmich-Paris : MC-RPA, TRAH-SCF, COSX integrals
   Lee Huntington         : MR-EOM, pCC
   Robert Izsak           : Overlap fitted RIJCOSX, COSX-SCS-MP3, EOM
   Marcus Kettner         : VPT2
   Christian Kollmar      : KDIIS, OOCD, Brueckner-CCSD(T), CCSD density, CASPT2, CASPT2-K
   Simone Kossmann        : Meta GGA functionals, TD-DFT gradient, OOMP2, MP2 Hessian
   Martin Krupicka        : Initial AUTO-CI
   Lucas Lang             : DCDCAS
   Marvin Lechner         : AUTO-CI (C++ implementation), FIC-MRCC
   Dagmar Lenk            : GEPOL surface, SMD
   Dimitrios Liakos       : Extrapolation schemes; Compound Job, initial MDCI parallelization
   Dimitrios Manganas     : Further ROCIS development; embedding schemes
   Dimitrios Pantazis     : SARC Basis sets
   Anastasios Papadopoulos: AUTO-CI, single reference methods and gradients
   Taras Petrenko         : DFT Hessian,TD-DFT gradient, ASA, ECA, R-Raman, ABS, FL, XAS/XES, NRVS
   Peter Pinski           : DLPNO-MP2, DLPNO-MP2 Gradient
   Christoph Reimann      : Effective Core Potentials
   Marius Retegan         : Local ZFS, SOC
   Christoph Riplinger    : Optimizer, TS searches, QM/MM, DLPNO-CCSD(T), (RO)-DLPNO pert. Triples
   Tobias Risthaus        : Range-separated hybrids, TD-DFT gradient, RPA, STAB
   Michael Roemelt        : Original ROCIS implementation
   Masaaki Saitow         : Open-shell DLPNO-CCSD energy and density
   Barbara Sandhoefer     : DKH picture change effects
   Avijit Sen             : IP-ROCIS
   Kantharuban Sivalingam : CASSCF convergence, NEVPT2, FIC-MRCI
   Bernardo de Souza      : ESD, SOC TD-DFT
   Georgi Stoychev        : AutoAux, RI-MP2 NMR, DLPNO-MP2 response
   Willem Van den Heuvel  : Paramagnetic NMR
   Boris Wezisla          : Elementary symmetry handling
   Frank Wennmohs         : Technical directorship


 We gratefully acknowledge several colleagues who have allowed us to
 interface, adapt or use parts of their codes:
   Stefan Grimme, W. Hujo, H. Kruse, P. Pracht,  : VdW corrections, initial TS optimization,
                  C. Bannwarth, S. Ehlert          DFT functionals, gCP, sTDA/sTD-DF
   Ed Valeev, F. Pavosevic, A. Kumar             : LibInt (2-el integral package), F12 methods
   Garnet Chan, S. Sharma, J. Yang, R. Olivares  : DMRG
   Ulf Ekstrom                                   : XCFun DFT Library
   Mihaly Kallay                                 : mrcc  (arbitrary order and MRCC methods)
   Jiri Pittner, Ondrej Demel                    : Mk-CCSD
   Frank Weinhold                                : gennbo (NPA and NBO analysis)
   Christopher J. Cramer and Donald G. Truhlar   : smd solvation model
   Lars Goerigk                                  : TD-DFT with DH, B97 family of functionals
   V. Asgeirsson, H. Jonsson                     : NEB implementation
   FAccTs GmbH                                   : IRC, NEB, NEB-TS, DLPNO-Multilevel, CI-OPT
                                                   MM, QMMM, 2- and 3-layer-ONIOM, Crystal-QMMM,
                                                   LR-CPCM, SF, NACMEs, symmetry and pop. for TD-DFT,
                                                   nearIR, NL-DFT gradient (VV10), updates on ESD,
                                                   ML-optimized integration grids
   S Lehtola, MJT Oliveira, MAL Marques          : LibXC Library
   Liviu Ungur et al                             : ANISO software


 Your calculation uses the libint2 library for the computation of 2-el integrals
 For citations please refer to: http://libint.valeyev.net

 Your ORCA version has been built with support for libXC version: 5.1.0
 For citations please refer to: https://tddft.org/programs/libxc/

 This ORCA versions uses:
   CBLAS   interface :  Fast vector & matrix operations
   LAPACKE interface :  Fast linear algebra routines
   SCALAPACK package :  Parallel linear algebra routines
   Shared memory     :  Shared parallel matrices
   BLAS/LAPACK       :  OpenBLAS 0.3.15  USE64BITINT DYNAMIC_ARCH NO_AFFINITY SkylakeX SINGLE_THREADED
        Core in use  :  SkylakeX
   Copyright (c) 2011-2014, The OpenBLAS Project




***************************************
The coordinates will be read from file: /home/sk77/PycharmProjects/omg_database_publication/run_calculation/calculation_results/pareto_greedy/0/reaction_10005258/opt_n_1/conformer_8/geometry.xtbopt.xyz
***************************************


Your calculation utilizes the atom-pairwise dispersion correction
with the Becke-Johnson damping scheme (D3BJ)
Cite in your paper:
S.Grimme, S.Ehrlich, L.Goerigk, J Comput Chem, (2011), 32, 1456–1465 
S.Grimme, J.Antony, S.Ehrlich and H.Krieg, J.Chem.Phys., 132, (2010), 154104 
   

================================================================================

----- Orbital basis set information -----
Your calculation utilizes the basis: def2-SVP
   F. Weigend and R. Ahlrichs, Phys. Chem. Chem. Phys. 7, 3297 (2005).

----- AuxJ basis set information -----
Your calculation utilizes the auxiliary basis: def2/J
   F. Weigend, Phys. Chem. Chem. Phys. 8, 1057 (2006).

================================================================================
                                        WARNINGS
                       Please study these warnings very carefully!
================================================================================

INFO   : Checking CIS options ...

WARNING: CIS/ROCIS methods need fully converged wavefunctions
  ===> : Setting SCFConvForced true
         You can overwrite this default with %scf ConvForced false 


INFO   : the flag for use of the SHARK integral package has been found!



***************************************
The coordinates will be read from file: /home/sk77/PycharmProjects/omg_database_publication/run_calculation/calculation_results/pareto_greedy/0/reaction_10005258/opt_n_1/conformer_8/geometry.xtbopt.xyz
***************************************


Your calculation utilizes the atom-pairwise dispersion correction
with the Becke-Johnson damping scheme (D3BJ)
Cite in your paper:
S.Grimme, S.Ehrlich, L.Goerigk, J Comput Chem, (2011), 32, 1456–1465 
S.Grimme, J.Antony, S.Ehrlich and H.Krieg, J.Chem.Phys., 132, (2010), 154104 
   

================================================================================

----- Orbital basis set information -----
Your calculation utilizes the basis: def2-SVP
   F. Weigend and R. Ahlrichs, Phys. Chem. Chem. Phys. 7, 3297 (2005).

----- AuxJ basis set information -----
Your calculation utilizes the auxiliary basis: def2/J
   F. Weigend, Phys. Chem. Chem. Phys. 8, 1057 (2006).

================================================================================
                                        WARNINGS
                       Please study these warnings very carefully!
================================================================================


INFO   : the flag for use of the SHARK integral package has been found!

================================================================================
                                       INPUT FILE
================================================================================
NAME = /home/sk77/PycharmProjects/omg_database_publication/run_calculation/calculation_results/pareto_greedy/0/reaction_10005258/opt_n_1/conformer_8/property.inp
|  1> ! revPBE def2-SVP def2/J CPCMC(Toluene) Hirshfeld CHELPG RIJONX D3 Energy
|  2> %pal
|  3> nprocs 1
|  4> end
|  5> %maxcore 3000
|  6> %elprop
|  7> Polar 1
|  8> Quadrupole True
|  9> end
| 10> %TDDFT
| 11> NRoots 15
| 12> Triplets True
| 13> end
| 14> * xyzfile 0 1 /home/sk77/PycharmProjects/omg_database_publication/run_calculation/calculation_results/pareto_greedy/0/reaction_10005258/opt_n_1/conformer_8/geometry.xtbopt.xyz
| 15> 
| 16> # for cosmo solvent -> Flory Huggins
| 17> $new_job
| 18> ! revPBE def2-SVP def2/J CPCMC Hirshfeld CHELPG RIJONX D3 Energy
| 19> %base "/home/sk77/PycharmProjects/omg_database_publication/run_calculation/calculation_results/pareto_greedy/0/reaction_10005258/opt_n_1/conformer_8/property_cosmo"
| 20> %pal
| 21> nprocs 1
| 22> end
| 23> %maxcore 3000
| 24> * xyzfile 0 1 /home/sk77/PycharmProjects/omg_database_publication/run_calculation/calculation_results/pareto_greedy/0/reaction_10005258/opt_n_1/conformer_8/geometry.xtbopt.xyz
| 25> 
| 26>                          ****END OF INPUT****
================================================================================


                 $$$$$$$$$$$$$$$$$$$$$$$$$$$$$$$$$$$$$$$$$$$$$$ 
                 $ THERE ARE  2 JOBS TO BE PROCESSED THIS RUN $
                 $$$$$$$$$$$$$$$$$$$$$$$$$$$$$$$$$$$$$$$$$$$$$$ 




                 $$$$$$$$$$$$$$$$  JOB NUMBER  1 $$$$$$$$$$$$$$


                       ****************************
                       * Single Point Calculation *
                       ****************************

---------------------------------
CARTESIAN COORDINATES (ANGSTROEM)
---------------------------------
  H     -0.824856   -3.065974   -0.813027
  C      0.133361   -3.356339   -0.418457
  C      1.044909   -2.360634   -0.103089
  O      0.613919   -1.056312   -0.289710
  C      1.397997   -0.137568   -0.881333
  O      2.515382   -0.363145   -1.287910
  C      0.715024    1.172177   -1.012652
  C      1.411843    2.209690   -1.620112
  H      2.426933    2.052752   -1.950869
  C      0.799195    3.443976   -1.828678
  C      1.582033    4.508170   -2.523067
  O      2.714824    4.292200   -2.913956
  C      0.915566    5.838859   -2.719770
  H      0.020039    5.715767   -3.323284
  H      0.633943    6.258888   -1.758072
  H      1.601519    6.513101   -3.224745
  C     -0.510123    3.627889   -1.399662
  H     -1.011948    4.568326   -1.556585
  C     -1.209986    2.600400   -0.759866
  N     -2.527959    2.860239   -0.394994
  H     -2.994743    3.575531   -0.937745
  C     -3.319156    2.326060    0.575078
  S     -4.953628    2.697761    0.511563
  N     -2.769594    1.560525    1.517935
  H     -1.760169    1.556443    1.584701
  C     -3.468374    1.067793    2.683455
  H     -4.534031    1.051051    2.449467
  H     -3.127635    0.049089    2.876706
  C     -3.209936    1.947899    3.904086
  H     -2.147493    1.982031    4.131050
  H     -3.563656    2.958939    3.715930
  H     -3.740345    1.548433    4.762361
  C     -0.597404    1.360547   -0.582802
  H     -1.134191    0.527705   -0.161082
  C      2.300284   -2.647909    0.416297
  H      2.980461   -1.847197    0.651571
  C      2.628718   -3.982893    0.588600
  O      3.873202   -4.417249    1.099195
  C      4.854974   -3.570962    1.286726
  F      5.229780   -2.883342    0.192192
  F      4.623017   -2.633796    2.230048
  F      5.932839   -4.240648    1.696139
  C      1.746560   -4.998490    0.282111
  H      2.031636   -6.025040    0.429706
  C      0.478985   -4.691906   -0.222088
  O     -0.321257   -5.738457   -0.489212
  C     -1.621768   -5.492543   -1.005349
  H     -2.215356   -4.902052   -0.305078
  H     -1.570979   -4.986093   -1.971019
  H     -2.072350   -6.473670   -1.130694

----------------------------
CARTESIAN COORDINATES (A.U.)
----------------------------
  NO LB      ZA    FRAG     MASS         X           Y           Z
   0 H     1.0000    0     1.008   -1.558752   -5.793851   -1.536398
   1 C     6.0000    0    12.011    0.252016   -6.342562   -0.790770
   2 C     6.0000    0    12.011    1.974592   -4.460953   -0.194809
   3 O     8.0000    0    15.999    1.160138   -1.996140   -0.547473
   4 C     6.0000    0    12.011    2.641832   -0.259966   -1.665478
   5 O     8.0000    0    15.999    4.753384   -0.686245   -2.433797
   6 C     6.0000    0    12.011    1.351199    2.215093   -1.913635
   7 C     6.0000    0    12.011    2.667996    4.175709   -3.061569
   8 H     1.0000    0     1.008    4.586238    3.879138   -3.686608
   9 C     6.0000    0    12.011    1.510260    6.508171   -3.455700
  10 C     6.0000    0    12.011    2.989609    8.519206   -4.767906
  11 O     8.0000    0    15.999    5.130274    8.111082   -5.506578
  12 C     6.0000    0    12.011    1.730169   11.033845   -5.139621
  13 H     1.0000    0     1.008    0.037869   10.801235   -6.280098
  14 H     1.0000    0     1.008    1.197979   11.827584   -3.322274
  15 H     1.0000    0     1.008    3.026432   12.307977   -6.093885
  16 C     6.0000    0    12.011   -0.963992    6.855716   -2.644977
  17 H     1.0000    0     1.008   -1.912305    8.632885   -2.941519
  18 C     6.0000    0    12.011   -2.286542    4.914044   -1.435939
  19 N     7.0000    0    14.007   -4.777150    5.405069   -0.746431
  20 H     1.0000    0     1.008   -5.659243    6.756774   -1.772082
  21 C     6.0000    0    12.011   -6.272295    4.395616    1.086739
  22 S    16.0000    0    32.060   -9.361000    5.098029    0.966714
  23 N     7.0000    0    14.007   -5.233774    2.948966    2.868482
  24 H     1.0000    0     1.008   -3.326237    2.941250    2.994651
  25 C     6.0000    0    12.011   -6.554277    2.017837    5.070995
  26 H     1.0000    0     1.008   -8.568076    1.986199    4.628823
  27 H     1.0000    0     1.008   -5.910373    0.092764    5.436187
  28 C     6.0000    0    12.011   -6.065900    3.680995    7.377654
  29 H     1.0000    0     1.008   -4.058173    3.745495    7.806553
  30 H     1.0000    0     1.008   -6.734334    5.591584    7.022089
  31 H     1.0000    0     1.008   -7.068227    2.926115    8.999558
  32 C     6.0000    0    12.011   -1.128930    2.571062   -1.101336
  33 H     1.0000    0     1.008   -2.143310    0.997218   -0.304401
  34 C     6.0000    0    12.011    4.346907   -5.003822    0.786688
  35 H     1.0000    0     1.008    5.632256   -3.490696    1.231290
  36 C     6.0000    0    12.011    4.967557   -7.526577    1.112292
  37 O     8.0000    0    15.999    7.319290   -8.347391    2.077178
  38 C     6.0000    0    12.011    9.174571   -6.748141    2.431559
  39 F     9.0000    0    18.998    9.882852   -5.448727    0.363190
  40 F     9.0000    0    18.998    8.736236   -4.977153    4.214180
  41 F     9.0000    0    18.998   11.211440   -8.013664    3.205238
  42 C     6.0000    0    12.011    3.300520   -9.445777    0.533113
  43 H     1.0000    0     1.008    3.839235  -11.385676    0.812027
  44 C     6.0000    0    12.011    0.905150   -8.866418   -0.419685
  45 O     8.0000    0    15.999   -0.607088  -10.844112   -0.924477
  46 C     6.0000    0    12.011   -3.064698  -10.379403   -1.899834
  47 H     1.0000    0     1.008   -4.186415   -9.263536   -0.576514
  48 H     1.0000    0     1.008   -2.968719   -9.422350   -3.724685
  49 H     1.0000    0     1.008   -3.916174  -12.233463   -2.136703

--------------------------------
INTERNAL COORDINATES (ANGSTROEM)
--------------------------------
 H      0   0   0     0.000000000000     0.00000000     0.00000000
 C      1   0   0     1.076186118513     0.00000000     0.00000000
 C      2   1   0     1.386291948824   118.36463959     0.00000000
 O      3   2   1     1.386303760128   116.15023792     1.97530700
 C      4   3   2     1.344948293946   121.37808710   224.73197125
 O      5   4   3     1.210264355200   123.96552312   359.88005305
 C      5   4   3     1.482946199351   111.94917106   178.15186394
 C      7   5   4     1.389603417205   117.85200278   180.58155734
 H      8   7   5     1.079091084254   119.80937785   358.19909048
 C      8   7   5     1.393663318610   120.41281447   176.93531988
 C     10   8   7     1.492487897471   118.06954200   181.83241381
 O     11  10   8     1.217642242556   120.72087285     1.19970024
 C     11  10   8     1.501201463902   117.39642272   180.97830536
 H     13  11  10     1.086899066003   109.76459839   299.40067404
 H     13  11  10     1.086553655298   109.98392783    59.03017821
 H     13  11  10     1.086339013812   109.31354520   179.38463476
 C     10   8   7     1.390033130543   119.01629656     1.08599869
 H     17  10   8     1.077439568363   120.61358538   180.61658823
 C     17  10   8     1.398169945920   121.03025045     0.38895083
 N     19  17  10     1.392013218662   117.17438866   181.62762916
 H     20  19  17     1.011982022080   115.34582773    24.86302751
 C     20  19  17     1.361021599167   131.60322536   205.11470400
 S     22  20  19     1.677406989318   116.90332645   191.44251229
 N     22  20  19     1.333057352736   119.33129898    12.11427731
 H     24  22  20     1.011639089753   117.40980622    12.02883454
 C     24  22  20     1.445515479874   124.52381278   172.34725168
 H     26  24  22     1.091171004698   107.72438211    23.80522785
 H     26  24  22     1.091425031981   108.05946957   141.64525422
 C     26  24  22     1.526865148717   111.48646528   262.76075568
 H     29  26  24     1.086951329222   110.51623394   300.56982650
 H     29  26  24     1.087530706236   110.02967074    60.94101241
 H     29  26  24     1.085145909712   109.71704223   180.45068752
 C      7   5   4     1.393815255434   121.71620778   358.64249451
 H     33   7   5     1.076853700270   119.05323677   358.86213484
 C      3   2   1     1.388616116412   122.06962766   179.69047710
 H     35   3   2     1.076631180616   119.93530021   180.16579720
 C     35   3   2     1.385546676816   117.39614263     1.21715154
 O     37  35   3     1.413546100189   123.34502735   179.61327234
 C     38  37  35     1.309673563927   120.87298599   351.51449535
 F     39  38  37     1.345847395733   114.99010497   302.88199995
 F     39  38  37     1.349793190326   114.82791940    65.12556710
 F     39  38  37     1.333375852276   108.99006226   183.64000984
 C     37  35   3     1.379701331803   122.00889039   358.94382574
 H     43  37  35     1.075573316901   120.17217821   180.14533489
 C      2   1   3     1.393469069822   122.08031976   180.17997802
 O     45   2   1     1.344250923888   124.78720801   359.72119284
 C     46  45   2     1.420633656962   118.84230660   359.73499528
 H     47  46  45     1.091515076682   111.00160675   299.10862950
 H     47  46  45     1.091599741087   111.04610421    61.79743419
 H     47  46  45     1.086896671442   105.37574177   180.43537290

---------------------------
INTERNAL COORDINATES (A.U.)
---------------------------
 H      0   0   0     0.000000000000     0.00000000     0.00000000
 C      1   0   0     2.033697033116     0.00000000     0.00000000
 C      2   1   0     2.619712124938   118.36463959     0.00000000
 O      3   2   1     2.619734445068   116.15023792     1.97530700
 C      4   3   2     2.541583939843   121.37808710   224.73197125
 O      5   4   3     2.287068180974   123.96552312   359.88005305
 C      5   4   3     2.802362188113   111.94917106   178.15186394
 C      7   5   4     2.625969893278   117.85200278   180.58155734
 H      8   7   5     2.039186622796   119.80937785   358.19909048
 C      8   7   5     2.633641995064   120.41281447   176.93531988
 C     10   8   7     2.820393384412   118.06954200   181.83241381
 O     11  10   8     2.301010367525   120.72087285     1.19970024
 C     11  10   8     2.836859638616   117.39642272   180.97830536
 H     13  11  10     2.053941569961   109.76459839   299.40067404
 H     13  11  10     2.053288838323   109.98392783    59.03017821
 H     13  11  10     2.052883224700   109.31354520   179.38463476
 C     10   8   7     2.626781933803   119.01629656     1.08599869
 H     17  10   8     2.036065710056   120.61358538   180.61658823
 C     17  10   8     2.642158286469   121.03025045     0.38895083
 N     19  17  10     2.630523758070   117.17438866   181.62762916
 H     20  19  17     1.912368874183   115.34582773    24.86302751
 C     20  19  17     2.571958084778   131.60322536   205.11470400
 S     22  20  19     3.169839824936   116.90332645   191.44251229
 N     22  20  19     2.519113317480   119.33129898    12.11427731
 H     24  22  20     1.911720826002   117.40980622    12.02883454
 C     24  22  20     2.731628379307   124.52381278   172.34725168
 H     26  24  22     2.062014364154   107.72438211    23.80522785
 H     26  24  22     2.062494406151   108.05946957   141.64525422
 C     26  24  22     2.885356974504   111.48646528   262.76075568
 H     29  26  24     2.054040333131   110.51623394   300.56982650
 H     29  26  24     2.055135197017   110.02967074    60.94101241
 H     29  26  24     2.050628584700   109.71704223   180.45068752
 C      7   5   4     2.633929114051   121.71620778   358.64249451
 H     33   7   5     2.034958579811   119.05323677   358.86213484
 C      3   2   1     2.624104165167   122.06962766   179.69047710
 H     35   3   2     2.034538078604   119.93530021   180.16579720
 C     35   3   2     2.618303764948   117.39614263     1.21715154
 O     37  35   3     2.671215007029   123.34502735   179.61327234
 C     38  37  35     2.474924360658   120.87298599   351.51449535
 F     39  38  37     2.543282995986   114.99010497   302.88199995
 F     39  38  37     2.550739467148   114.82791940    65.12556710
 F     39  38  37     2.519715194385   108.99006226   183.64000984
 C     37  35   3     2.607257663714   122.00889039   358.94382574
 H     43  37  35     2.032539005896   120.17217821   180.14533489
 C      2   1   3     2.633274918054   122.08031976   180.17997802
 O     45   2   1     2.540266101419   124.78720801   359.72119284
 C     46  45   2     2.684608548290   118.84230660   359.73499528
 H     47  46  45     2.062664565975   111.00160675   299.10862950
 H     47  46  45     2.062824558513   111.04610421    61.79743419
 H     47  46  45     2.053937044896   105.37574177   180.43537290

---------------------
BASIS SET INFORMATION
---------------------
There are 6 groups of distinct atoms

 Group   1 Type H   : 4s1p contracted to 2s1p pattern {31/1}
 Group   2 Type C   : 7s4p1d contracted to 3s2p1d pattern {511/31/1}
 Group   3 Type O   : 7s4p1d contracted to 3s2p1d pattern {511/31/1}
 Group   4 Type N   : 7s4p1d contracted to 3s2p1d pattern {511/31/1}
 Group   5 Type S   : 10s7p1d contracted to 4s3p1d pattern {5311/511/1}
 Group   6 Type F   : 7s4p1d contracted to 3s2p1d pattern {511/31/1}

Atom   0H    basis set group =>   1
Atom   1C    basis set group =>   2
Atom   2C    basis set group =>   2
Atom   3O    basis set group =>   3
Atom   4C    basis set group =>   2
Atom   5O    basis set group =>   3
Atom   6C    basis set group =>   2
Atom   7C    basis set group =>   2
Atom   8H    basis set group =>   1
Atom   9C    basis set group =>   2
Atom  10C    basis set group =>   2
Atom  11O    basis set group =>   3
Atom  12C    basis set group =>   2
Atom  13H    basis set group =>   1
Atom  14H    basis set group =>   1
Atom  15H    basis set group =>   1
Atom  16C    basis set group =>   2
Atom  17H    basis set group =>   1
Atom  18C    basis set group =>   2
Atom  19N    basis set group =>   4
Atom  20H    basis set group =>   1
Atom  21C    basis set group =>   2
Atom  22S    basis set group =>   5
Atom  23N    basis set group =>   4
Atom  24H    basis set group =>   1
Atom  25C    basis set group =>   2
Atom  26H    basis set group =>   1
Atom  27H    basis set group =>   1
Atom  28C    basis set group =>   2
Atom  29H    basis set group =>   1
Atom  30H    basis set group =>   1
Atom  31H    basis set group =>   1
Atom  32C    basis set group =>   2
Atom  33H    basis set group =>   1
Atom  34C    basis set group =>   2
Atom  35H    basis set group =>   1
Atom  36C    basis set group =>   2
Atom  37O    basis set group =>   3
Atom  38C    basis set group =>   2
Atom  39F    basis set group =>   6
Atom  40F    basis set group =>   6
Atom  41F    basis set group =>   6
Atom  42C    basis set group =>   2
Atom  43H    basis set group =>   1
Atom  44C    basis set group =>   2
Atom  45O    basis set group =>   3
Atom  46C    basis set group =>   2
Atom  47H    basis set group =>   1
Atom  48H    basis set group =>   1
Atom  49H    basis set group =>   1
---------------------------------
AUXILIARY/J BASIS SET INFORMATION
---------------------------------
There are 6 groups of distinct atoms

 Group   1 Type H   : 5s2p1d contracted to 3s1p1d pattern {311/2/1}
 Group   2 Type C   : 12s5p4d2f1g contracted to 6s4p3d1f1g pattern {711111/2111/211/2/1}
 Group   3 Type O   : 12s5p4d2f1g contracted to 6s4p3d1f1g pattern {711111/2111/211/2/1}
 Group   4 Type N   : 12s5p4d2f1g contracted to 6s4p3d1f1g pattern {711111/2111/211/2/1}
 Group   5 Type S   : 14s5p5d2f1g contracted to 8s4p3d1f1g pattern {71111111/2111/311/2/1}
 Group   6 Type F   : 12s5p4d2f1g contracted to 6s4p3d1f1g pattern {711111/2111/211/2/1}

Atom   0H    basis set group =>   1
Atom   1C    basis set group =>   2
Atom   2C    basis set group =>   2
Atom   3O    basis set group =>   3
Atom   4C    basis set group =>   2
Atom   5O    basis set group =>   3
Atom   6C    basis set group =>   2
Atom   7C    basis set group =>   2
Atom   8H    basis set group =>   1
Atom   9C    basis set group =>   2
Atom  10C    basis set group =>   2
Atom  11O    basis set group =>   3
Atom  12C    basis set group =>   2
Atom  13H    basis set group =>   1
Atom  14H    basis set group =>   1
Atom  15H    basis set group =>   1
Atom  16C    basis set group =>   2
Atom  17H    basis set group =>   1
Atom  18C    basis set group =>   2
Atom  19N    basis set group =>   4
Atom  20H    basis set group =>   1
Atom  21C    basis set group =>   2
Atom  22S    basis set group =>   5
Atom  23N    basis set group =>   4
Atom  24H    basis set group =>   1
Atom  25C    basis set group =>   2
Atom  26H    basis set group =>   1
Atom  27H    basis set group =>   1
Atom  28C    basis set group =>   2
Atom  29H    basis set group =>   1
Atom  30H    basis set group =>   1
Atom  31H    basis set group =>   1
Atom  32C    basis set group =>   2
Atom  33H    basis set group =>   1
Atom  34C    basis set group =>   2
Atom  35H    basis set group =>   1
Atom  36C    basis set group =>   2
Atom  37O    basis set group =>   3
Atom  38C    basis set group =>   2
Atom  39F    basis set group =>   6
Atom  40F    basis set group =>   6
Atom  41F    basis set group =>   6
Atom  42C    basis set group =>   2
Atom  43H    basis set group =>   1
Atom  44C    basis set group =>   2
Atom  45O    basis set group =>   3
Atom  46C    basis set group =>   2
Atom  47H    basis set group =>   1
Atom  48H    basis set group =>   1
Atom  49H    basis set group =>   1
------------------------------------------------------------------------------
                           ORCA GTO INTEGRAL CALCULATION
                           -- RI-GTO INTEGRALS CHOSEN --
------------------------------------------------------------------------------
------------------------------------------------------------------------------
                   ___                                                        
                  /   \      - P O W E R E D   B Y -                         
                 /     \                                                     
                 |  |  |   _    _      __       _____    __    __             
                 |  |  |  | |  | |    /  \     |  _  \  |  |  /  |          
                  \  \/   | |  | |   /    \    | | | |  |  | /  /          
                 / \  \   | |__| |  /  /\  \   | |_| |  |  |/  /          
                |  |  |   |  __  | /  /__\  \  |    /   |      \           
                |  |  |   | |  | | |   __   |  |    \   |  |\   \          
                \     /   | |  | | |  |  |  |  | |\  \  |  | \   \       
                 \___/    |_|  |_| |__|  |__|  |_| \__\ |__|  \__/        
                                                                              
                      - O R C A' S   B I G   F R I E N D -                    
                                      &                                       
                       - I N T E G R A L  F E E D E R -                       
                                                                              
 v1 FN, 2020, v2 2021                                                         
------------------------------------------------------------------------------


Reading SHARK input file /home/sk77/PycharmProjects/omg_database_publication/run_calculation/calculation_results/pareto_greedy/0/reaction_10005258/opt_n_1/conformer_8/property.SHARKINP.tmp ... ok
----------------------
SHARK INTEGRAL PACKAGE
----------------------

Number of atoms                             ...     50
Number of basis functions                   ...    533
Number of shells                            ...    245
Maximum angular momentum                    ...      2
Integral batch strategy                     ... SHARK/LIBINT Hybrid
RI-J (if used) integral strategy            ... SPLIT-RIJ (Revised 2003 algorithm where possible)
Printlevel                                  ...      1
Contraction scheme used                     ... SEGMENTED contraction
Coulomb Range Separation                    ... NOT USED
Exchange Range Separation                   ... NOT USED
Finite Nucleus Model                        ... NOT USED
Auxiliary Coulomb fitting basis             ... AVAILABLE
   # of basis functions in Aux-J            ...   1730
   # of shells in Aux-J                     ...    562
   Maximum angular momentum in Aux-J        ...      4
Auxiliary J/K fitting basis                 ... NOT available
Auxiliary Correlation fitting basis         ... NOT available
Auxiliary 'external' fitting basis          ... NOT available
Integral threshold                          ...     1.000000e-10
Primitive cut-off                           ...     1.000000e-11
Primitive pair pre-selection threshold      ...     1.000000e-11

Calculating pre-screening integrals         ... done (  0.1 sec) Dimension = 245
Organizing shell pair data                  ... done (  1.4 sec)
Shell pair information
Total number of shell pairs                 ...     30135
Shell pairs after pre-screening             ...     15907
Total number of primitive shell pairs       ...    112571
Primitive shell pairs kept                  ...     36187
          la=0 lb=0:   4813 shell pairs
          la=1 lb=0:   5948 shell pairs
          la=1 lb=1:   1891 shell pairs
          la=2 lb=0:   1894 shell pairs
          la=2 lb=1:   1176 shell pairs
          la=2 lb=2:    185 shell pairs

Calculating one electron integrals          ... done (  0.2 sec)
Calculating RI/J V-Matrix + Cholesky decomp.... done (  2.5 sec)
Calculating Nuclear repulsion               ... done (  0.3 sec) ENN=   3158.666106126971 Eh

SHARK setup successfully completed in   7.0 seconds

Maximum memory used throughout the entire GTOINT-calculation: 99.9 MB
-------------------------------------------------------------------------------
                                 ORCA SCF
-------------------------------------------------------------------------------

------------
SCF SETTINGS
------------
Hamiltonian:
 Density Functional     Method          .... DFT(GTOs)
 Exchange Functional    Exchange        .... PBE
   PBE kappa parameter   XKappa         ....  1.245000
   PBE mue parameter    XMuePBE         ....  0.219520
 Correlation Functional Correlation     .... PBE
   PBE beta parameter  CBetaPBE         ....  0.066725
 LDA part of GGA corr.  LDAOpt          .... PW91-LDA
 Gradients option       PostSCFGGA      .... off
   Density functional embedding theory  .... OFF
   NL short-range parameter             ....  3.700000
 RI-approximation to the Coulomb term is turned on
   Number of AuxJ basis functions       .... 1730


General Settings:
 Integral files         IntName         .... /home/sk77/PycharmProjects/omg_database_publication/run_calculation/calculation_results/pareto_greedy/0/reaction_10005258/opt_n_1/conformer_8/property
 Hartree-Fock type      HFTyp           .... RHF
 Total Charge           Charge          ....    0
 Multiplicity           Mult            ....    1
 Number of Electrons    NEL             ....  236
 Basis Dimension        Dim             ....  533
 Nuclear Repulsion      ENuc            ....   3158.6661061270 Eh

Convergence Acceleration:
 DIIS                   CNVDIIS         .... on
   Start iteration      DIISMaxIt       ....    12
   Startup error        DIISStart       ....  0.200000
   # of expansion vecs  DIISMaxEq       ....     5
   Bias factor          DIISBfac        ....   1.050
   Max. coefficient     DIISMaxC        ....  10.000
 Trust-Rad. Augm. Hess. CNVTRAH         .... auto
   Auto Start mean grad. ratio tolernc. ....  1.125000
   Auto Start start iteration           ....    20
   Auto Start num. interpolation iter.  ....    10
   Max. Number of Micro iterations      ....    16
   Max. Number of Macro iterations      .... Maxiter - #DIIS iter
   Number of Davidson start vectors     ....     2
   Converg. threshold I  (grad. norm)   ....   5.000e-05
   Converg. threshold II (energy diff.) ....   1.000e-06
   Grad. Scal. Fac. for Micro threshold ....   0.100
   Minimum threshold for Micro iter.    ....   0.010
   NR start threshold (gradient norm)   ....   0.001
   Initial trust radius                 ....   0.400
   Minimum AH scaling param. (alpha)    ....   1.000
   Maximum AH scaling param. (alpha)    .... 1000.000
   Orbital update algorithm             .... Taylor
   White noise on init. David. guess    .... on
   Maximum white noise                  ....   0.010
   Quad. conv. algorithm                .... NR
   COSX micro iterations for RIJONX calc.... off
 SOSCF                  CNVSOSCF        .... on
   Start iteration      SOSCFMaxIt      ....   150
   Startup grad/error   SOSCFStart      ....  0.003300
 Level Shifting         CNVShift        .... on
   Level shift para.    LevelShift      ....    0.2500
   Turn off err/grad.   ShiftErr        ....    0.0010
 Zerner damping         CNVZerner       .... off
 Static damping         CNVDamp         .... on
   Fraction old density DampFac         ....    0.7000
   Max. Damping (<1)    DampMax         ....    0.9800
   Min. Damping (>=0)   DampMin         ....    0.0000
   Turn off err/grad.   DampErr         ....    0.1000
 Fernandez-Rico         CNVRico         .... off

SCF Procedure:
 Maximum # iterations   MaxIter         ....   125
 SCF integral mode      SCFMode         .... Direct
   Integral package                     .... SHARK and LIBINT hybrid scheme
 Reset frequency        DirectResetFreq ....    20
 Integral Threshold     Thresh          ....  1.000e-10 Eh
 Primitive CutOff       TCut            ....  1.000e-11 Eh

Convergence Tolerance:
 Convergence Check Mode ConvCheckMode   .... Total+1el-Energy
 Convergence forced     ConvForced      .... 1
 Energy Change          TolE            ....  1.000e-06 Eh
 1-El. energy change                    ....  1.000e-03 Eh
 Orbital Gradient       TolG            ....  5.000e-05
 Orbital Rotation angle TolX            ....  5.000e-05
 DIIS Error             TolErr          ....  1.000e-06


Diagonalization of the overlap matrix:
Smallest eigenvalue                        ... 2.172e-04
Time for diagonalization                   ...    0.047 sec
Threshold for overlap eigenvalues          ... 1.000e-08
Number of eigenvalues below threshold      ... 0
Time for construction of square roots      ...    0.330 sec
Total time needed                          ...    0.379 sec

Time for model grid setup =    3.325 sec

------------------------------
INITIAL GUESS: MODEL POTENTIAL
------------------------------
Loading Hartree-Fock densities                     ... done
Calculating cut-offs                               ... done
Initializing the effective Hamiltonian             ... done
Setting up the integral package (SHARK)            ... done
Starting the Coulomb interaction                   ... done (   5.7 sec)
Reading the grid                                   ... done
Mapping shells                                     ... done
Starting the XC term evaluation                    ... done (   1.0 sec)
  promolecular density results
     # of electrons  =    235.980218612
     EX              =   -218.169998222
     EC              =     -8.114079978
     EX+EC           =   -226.284078200
Transforming the Hamiltonian                       ... done (   0.2 sec)
Diagonalizing the Hamiltonian                      ... done (   0.0 sec)
Back transforming the eigenvectors                 ... done (   0.0 sec)
Now organizing SCF variables                       ... done
                      ------------------
                      INITIAL GUESS DONE (  11.2 sec)
                      ------------------
-------------------
DFT GRID GENERATION
-------------------

General Integration Accuracy     IntAcc      ... 4.388
Radial Grid Type                 RadialGrid  ... OptM3 with GC (2021)
Angular Grid (max. ang.)         AngularGrid ... 4 (Lebedev-302)
Angular grid pruning method      GridPruning ... 4 (adaptive)
Weight generation scheme         WeightScheme... Becke
Basis function cutoff            BFCut       ... 1.0000e-10
Integration weight cutoff        WCut        ... 1.0000e-14
Angular grids for H and He will be reduced by one unit
Partially contracted basis set               ... off
Rotationally invariant grid construction     ... off

Total number of grid points                  ...   247912
Total number of batches                      ...     3898
Average number of points per batch           ...       63
Average number of grid points per atom       ...     4958
Time for grid setup =    6.720 sec


--------------------
CPCM SOLVATION MODEL
--------------------
CPCM parameters:
  Epsilon                                         ...       2.4000
  Refrac                                          ...       1.4970
  Rsolv                                           ...       1.3000
  Surface type                                    ... GAUSSIAN VDW
  Epsilon function type                           ...        COSMO
Radii:
 Radius for H  used is    2.4944 Bohr (=   1.3200 Ang.)
 Radius for C  used is    3.8550 Bohr (=   2.0400 Ang.)
 Radius for O  used is    3.4469 Bohr (=   1.8240 Ang.)
 Radius for N  used is    3.5149 Bohr (=   1.8600 Ang.)
 Radius for S  used is    4.0818 Bohr (=   2.1600 Ang.)
 Radius for F  used is    3.3335 Bohr (=   1.7640 Ang.)
Calculating surface                               ...        done! (  0.0s)
GEPOL surface points                              ...         2664
GEPOL Volume                                      ...    3274.2611
GEPOL Surface-area                                ...    1694.3100
Calculating surface distance matrix               ...        done! (  0.1s)
Performing Cholesky decomposition & store         ...        done! (  2.0s)
Overall time for CPCM initialization              ...                 2.0s
--------------
SCF ITERATIONS
--------------
ITER       Energy         Delta-E        Max-DP      RMS-DP      [F,P]     Damp
               ***  Starting incremental Fock matrix formation  ***
  0  -1954.5718378673   0.000000000000 0.13969143  0.00157878  0.2368847 0.7000
  1  -1954.8628681068  -0.291030239492 0.08203020  0.00097401  0.0749093 0.7000
                               ***Turning on DIIS***
  2  -1954.9551511796  -0.092283072816 0.09306881  0.00138997  0.0281268 0.0000
  3  -1955.1218431126  -0.166691932929 0.04853469  0.00066107  0.0455943 0.0000
  4  -1955.1530921884  -0.031249075884 0.01706888  0.00024788  0.0262638 0.0000
  5  -1955.1573978912  -0.004305702803 0.00577910  0.00007931  0.0057023 0.0000
                      *** Initiating the SOSCF procedure ***
                           *** Shutting down DIIS ***
                      *** Re-Reading the Fockian *** 
                      *** Removing any level shift *** 
ITER      Energy       Delta-E        Grad      Rot      Max-DP    RMS-DP
  6  -1955.15759368  -0.0001957932  0.000376  0.000376  0.001793  0.000029
               *** Restarting incremental Fock matrix formation ***
  7  -1955.15762277  -0.0000290881  0.000230  0.001322  0.001213  0.000020
  8  -1955.15761722   0.0000055508  0.000354  0.000461  0.001087  0.000011
  9  -1955.15762652  -0.0000092957  0.000099  0.000421  0.000791  0.000008
 10  -1955.15762502   0.0000015012  0.000183  0.000260  0.000572  0.000005
 11  -1955.15762695  -0.0000019322  0.000021  0.000099  0.000111  0.000002
                 **** Energy Check signals convergence ****
              ***Rediagonalizing the Fockian in SOSCF/NRSCF***

               *****************************************************
               *                     SUCCESS                       *
               *           SCF CONVERGED AFTER  12 CYCLES          *
               *****************************************************


----------------
TOTAL SCF ENERGY
----------------

Total Energy       :        -1955.15762686 Eh          -53202.54379 eV

Components:
Nuclear Repulsion  :         3158.66610613 Eh           85951.67445 eV
Electronic Energy  :        -5113.82373299 Eh         -139154.21824 eV
One Electron Energy:        -8963.59053239 Eh         -243911.69862 eV
Two Electron Energy:         3849.76679940 Eh          104757.48038 eV
CPCM Dielectric    :           -0.01418875 Eh              -0.38610 eV

Virial components:
Potential Energy   :        -3896.44214911 Eh         -106027.58122 eV
Kinetic Energy     :         1941.28452225 Eh           52825.03742 eV
Virial Ratio       :            2.00714635


DFT components:
N(Alpha)           :      118.000099931047 electrons
N(Beta)            :      118.000099931047 electrons
N(Total)           :      236.000199862093 electrons
E(X)               :     -220.901845209650 Eh       
E(C)               :       -8.132575902655 Eh       
E(XC)              :     -229.034421112304 Eh       
DFET-embed. en.    :        0.000000000000 Eh       
CPCM Solvation Model Properties:
Surface-charge          :           -0.02426798
Charge-correction       :            0.00005630 Eh               0.00153 eV
Free-energy (cav+disp)  :  This term is not implemented in the current solvation scheme

---------------
SCF CONVERGENCE
---------------

  Last Energy change         ...    8.7003e-08  Tolerance :   1.0000e-06
  Last MAX-Density change    ...    7.1804e-05  Tolerance :   1.0000e-05
  Last RMS-Density change    ...    1.3995e-06  Tolerance :   1.0000e-06
  Last Orbital Gradient      ...    5.0639e-05  Tolerance :   5.0000e-05
  Last Orbital Rotation      ...    8.5977e-05  Tolerance :   5.0000e-05

             **** THE GBW FILE WAS UPDATED (/home/sk77/PycharmProjects/omg_database_publication/run_calculation/calculation_results/pareto_greedy/0/reaction_10005258/opt_n_1/conformer_8/property.gbw) ****
             **** DENSITY /home/sk77/PycharmProjects/omg_database_publication/run_calculation/calculation_results/pareto_greedy/0/reaction_10005258/opt_n_1/conformer_8/property.scfp WAS UPDATED ****
             **** ENERGY FILE WAS UPDATED (/home/sk77/PycharmProjects/omg_database_publication/run_calculation/calculation_results/pareto_greedy/0/reaction_10005258/opt_n_1/conformer_8/property.en.tmp) ****
             **** THE GBW FILE WAS UPDATED (/home/sk77/PycharmProjects/omg_database_publication/run_calculation/calculation_results/pareto_greedy/0/reaction_10005258/opt_n_1/conformer_8/property.gbw) ****
             **** DENSITY /home/sk77/PycharmProjects/omg_database_publication/run_calculation/calculation_results/pareto_greedy/0/reaction_10005258/opt_n_1/conformer_8/property.scfp WAS UPDATED ****
----------------
ORBITAL ENERGIES
----------------

  NO   OCC          E(Eh)            E(eV) 
   0   2.0000     -87.987907     -2394.2727 
   1   2.0000     -24.303693      -661.3371 
   2   2.0000     -24.302509      -661.3049 
   3   2.0000     -24.302278      -661.2986 
   4   2.0000     -18.848543      -512.8949 
   5   2.0000     -18.844071      -512.7733 
   6   2.0000     -18.817833      -512.0593 
   7   2.0000     -18.770558      -510.7728 
   8   2.0000     -18.765757      -510.6422 
   9   2.0000     -14.062470      -382.6593 
  10   2.0000     -14.053906      -382.4262 
  11   2.0000     -10.186870      -277.1988 
  12   2.0000     -10.044367      -273.3211 
  13   2.0000     -10.016674      -272.5676 
  14   2.0000      -9.997810      -272.0542 
  15   2.0000      -9.995832      -272.0004 
  16   2.0000      -9.990227      -271.8479 
  17   2.0000      -9.985724      -271.7254 
  18   2.0000      -9.979078      -271.5445 
  19   2.0000      -9.967932      -271.2412 
  20   2.0000      -9.946229      -270.6507 
  21   2.0000      -9.942600      -270.5519 
  22   2.0000      -9.938799      -270.4485 
  23   2.0000      -9.938517      -270.4408 
  24   2.0000      -9.934791      -270.3394 
  25   2.0000      -9.927687      -270.1461 
  26   2.0000      -9.921595      -269.9803 
  27   2.0000      -9.920265      -269.9441 
  28   2.0000      -9.917747      -269.8756 
  29   2.0000      -9.912736      -269.7393 
  30   2.0000      -9.905088      -269.5311 
  31   2.0000      -7.621752      -207.3984 
  32   2.0000      -5.645010      -153.6085 
  33   2.0000      -5.638385      -153.4283 
  34   2.0000      -5.634436      -153.3208 
  35   2.0000      -1.211428       -32.9646 
  36   2.0000      -1.108653       -30.1680 
  37   2.0000      -1.104065       -30.0431 
  38   2.0000      -1.037165       -28.2227 
  39   2.0000      -1.026366       -27.9289 
  40   2.0000      -0.990807       -26.9612 
  41   2.0000      -0.950960       -25.8769 
  42   2.0000      -0.942798       -25.6548 
  43   2.0000      -0.924185       -25.1483 
  44   2.0000      -0.859785       -23.3959 
  45   2.0000      -0.806319       -21.9411 
  46   2.0000      -0.799958       -21.7680 
  47   2.0000      -0.736450       -20.0398 
  48   2.0000      -0.721628       -19.6365 
  49   2.0000      -0.715822       -19.4785 
  50   2.0000      -0.706313       -19.2197 
  51   2.0000      -0.687917       -18.7192 
  52   2.0000      -0.674414       -18.3517 
  53   2.0000      -0.653007       -17.7692 
  54   2.0000      -0.652448       -17.7540 
  55   2.0000      -0.644295       -17.5321 
  56   2.0000      -0.621796       -16.9199 
  57   2.0000      -0.604750       -16.4561 
  58   2.0000      -0.585491       -15.9320 
  59   2.0000      -0.584247       -15.8982 
  60   2.0000      -0.572229       -15.5712 
  61   2.0000      -0.551522       -15.0077 
  62   2.0000      -0.541315       -14.7299 
  63   2.0000      -0.540931       -14.7195 
  64   2.0000      -0.533515       -14.5177 
  65   2.0000      -0.525307       -14.2943 
  66   2.0000      -0.513339       -13.9687 
  67   2.0000      -0.505552       -13.7568 
  68   2.0000      -0.476937       -12.9781 
  69   2.0000      -0.474398       -12.9090 
  70   2.0000      -0.467266       -12.7150 
  71   2.0000      -0.455935       -12.4066 
  72   2.0000      -0.454135       -12.3577 
  73   2.0000      -0.447764       -12.1843 
  74   2.0000      -0.443829       -12.0772 
  75   2.0000      -0.431882       -11.7521 
  76   2.0000      -0.430899       -11.7254 
  77   2.0000      -0.428728       -11.6663 
  78   2.0000      -0.421806       -11.4779 
  79   2.0000      -0.415205       -11.2983 
  80   2.0000      -0.412641       -11.2285 
  81   2.0000      -0.410445       -11.1688 
  82   2.0000      -0.408845       -11.1252 
  83   2.0000      -0.407240       -11.0816 
  84   2.0000      -0.400297       -10.8926 
  85   2.0000      -0.390143       -10.6163 
  86   2.0000      -0.390028       -10.6132 
  87   2.0000      -0.388824       -10.5804 
  88   2.0000      -0.377618       -10.2755 
  89   2.0000      -0.372598       -10.1389 
  90   2.0000      -0.371334       -10.1045 
  91   2.0000      -0.367834       -10.0093 
  92   2.0000      -0.361475        -9.8362 
  93   2.0000      -0.358219        -9.7476 
  94   2.0000      -0.356656        -9.7051 
  95   2.0000      -0.349161        -9.5012 
  96   2.0000      -0.344355        -9.3704 
  97   2.0000      -0.341906        -9.3037 
  98   2.0000      -0.340008        -9.2521 
  99   2.0000      -0.339527        -9.2390 
 100   2.0000      -0.337676        -9.1886 
 101   2.0000      -0.336227        -9.1492 
 102   2.0000      -0.329101        -8.9553 
 103   2.0000      -0.325294        -8.8517 
 104   2.0000      -0.323007        -8.7895 
 105   2.0000      -0.314182        -8.5493 
 106   2.0000      -0.308174        -8.3858 
 107   2.0000      -0.301424        -8.2022 
 108   2.0000      -0.278265        -7.5720 
 109   2.0000      -0.275693        -7.5020 
 110   2.0000      -0.260298        -7.0831 
 111   2.0000      -0.246895        -6.7183 
 112   2.0000      -0.228374        -6.2144 
 113   2.0000      -0.218479        -5.9451 
 114   2.0000      -0.213298        -5.8041 
 115   2.0000      -0.209967        -5.7135 
 116   2.0000      -0.190913        -5.1950 
 117   2.0000      -0.178543        -4.8584 
 118   0.0000      -0.107020        -2.9122 
 119   0.0000      -0.089325        -2.4306 
 120   0.0000      -0.051779        -1.4090 
 121   0.0000      -0.042673        -1.1612 
 122   0.0000      -0.035877        -0.9762 
 123   0.0000      -0.001819        -0.0495 
 124   0.0000       0.018010         0.4901 
 125   0.0000       0.031336         0.8527 
 126   0.0000       0.034342         0.9345 
 127   0.0000       0.037426         1.0184 
 128   0.0000       0.049771         1.3543 
 129   0.0000       0.055238         1.5031 
 130   0.0000       0.067350         1.8327 
 131   0.0000       0.072422         1.9707 
 132   0.0000       0.078845         2.1455 
 133   0.0000       0.089914         2.4467 
 134   0.0000       0.093878         2.5545 
 135   0.0000       0.099879         2.7178 
 136   0.0000       0.101345         2.7577 
 137   0.0000       0.101811         2.7704 
 138   0.0000       0.102915         2.8005 
 139   0.0000       0.105583         2.8731 
 140   0.0000       0.107758         2.9323 
 141   0.0000       0.108905         2.9635 
 142   0.0000       0.111386         3.0310 
 143   0.0000       0.114022         3.1027 
 144   0.0000       0.116165         3.1610 
 145   0.0000       0.120160         3.2697 
 146   0.0000       0.123845         3.3700 
 147   0.0000       0.130232         3.5438 
 148   0.0000       0.132018         3.5924 
 149   0.0000       0.134721         3.6659 
 150   0.0000       0.150030         4.0825 
 151   0.0000       0.154655         4.2084 
 152   0.0000       0.163453         4.4478 
 153   0.0000       0.177004         4.8165 
 154   0.0000       0.181621         4.9422 
 155   0.0000       0.187449         5.1008 
 156   0.0000       0.192736         5.2446 
 157   0.0000       0.199646         5.4326 
 158   0.0000       0.212759         5.7895 
 159   0.0000       0.216151         5.8818 
 160   0.0000       0.220666         6.0046 
 161   0.0000       0.228959         6.2303 
 162   0.0000       0.238289         6.4842 
 163   0.0000       0.243620         6.6292 
 164   0.0000       0.246337         6.7032 
 165   0.0000       0.251298         6.8382 
 166   0.0000       0.252360         6.8671 
 167   0.0000       0.260861         7.0984 
 168   0.0000       0.266792         7.2598 
 169   0.0000       0.277906         7.5622 
 170   0.0000       0.281689         7.6651 
 171   0.0000       0.293323         7.9817 
 172   0.0000       0.299147         8.1402 
 173   0.0000       0.303595         8.2612 
 174   0.0000       0.307975         8.3804 
 175   0.0000       0.318332         8.6623 
 176   0.0000       0.325684         8.8623 
 177   0.0000       0.339759         9.2453 
 178   0.0000       0.351704         9.5704 
 179   0.0000       0.363831         9.9003 
 180   0.0000       0.368679        10.0323 
 181   0.0000       0.373448        10.1620 
 182   0.0000       0.375818        10.2265 
 183   0.0000       0.387268        10.5381 
 184   0.0000       0.392193        10.6721 
 185   0.0000       0.394346        10.7307 
 186   0.0000       0.398717        10.8496 
 187   0.0000       0.404076        10.9955 
 188   0.0000       0.407027        11.0758 
 189   0.0000       0.408890        11.1265 
 190   0.0000       0.409978        11.1561 
 191   0.0000       0.417690        11.3659 
 192   0.0000       0.420908        11.4535 
 193   0.0000       0.425111        11.5679 
 194   0.0000       0.431904        11.7527 
 195   0.0000       0.436484        11.8773 
 196   0.0000       0.443071        12.0566 
 197   0.0000       0.446052        12.1377 
 198   0.0000       0.446806        12.1582 
 199   0.0000       0.452551        12.3145 
 200   0.0000       0.455089        12.3836 
 201   0.0000       0.472410        12.8549 
 202   0.0000       0.476275        12.9601 
 203   0.0000       0.480213        13.0673 
 204   0.0000       0.488513        13.2931 
 205   0.0000       0.497130        13.5276 
 206   0.0000       0.507229        13.8024 
 207   0.0000       0.513697        13.9784 
 208   0.0000       0.519395        14.1334 
 209   0.0000       0.523624        14.2485 
 210   0.0000       0.531493        14.4627 
 211   0.0000       0.536713        14.6047 
 212   0.0000       0.546838        14.8802 
 213   0.0000       0.555487        15.1156 
 214   0.0000       0.558547        15.1988 
 215   0.0000       0.561977        15.2922 
 216   0.0000       0.565054        15.3759 
 217   0.0000       0.572695        15.5838 
 218   0.0000       0.577376        15.7112 
 219   0.0000       0.580782        15.8039 
 220   0.0000       0.584928        15.9167 
 221   0.0000       0.588505        16.0140 
 222   0.0000       0.590931        16.0800 
 223   0.0000       0.596561        16.2333 
 224   0.0000       0.596851        16.2411 
 225   0.0000       0.599561        16.3149 
 226   0.0000       0.603654        16.4263 
 227   0.0000       0.604553        16.4507 
 228   0.0000       0.611384        16.6366 
 229   0.0000       0.613580        16.6964 
 230   0.0000       0.615627        16.7521 
 231   0.0000       0.621141        16.9021 
 232   0.0000       0.626795        17.0560 
 233   0.0000       0.630222        17.1492 
 234   0.0000       0.634001        17.2520 
 235   0.0000       0.636811        17.3285 
 236   0.0000       0.646105        17.5814 
 237   0.0000       0.646949        17.6044 
 238   0.0000       0.650438        17.6993 
 239   0.0000       0.655297        17.8315 
 240   0.0000       0.656978        17.8773 
 241   0.0000       0.660049        17.9608 
 242   0.0000       0.662926        18.0391 
 243   0.0000       0.665535        18.1101 
 244   0.0000       0.668787        18.1986 
 245   0.0000       0.672229        18.2923 
 246   0.0000       0.678427        18.4609 
 247   0.0000       0.684179        18.6174 
 248   0.0000       0.686582        18.6828 
 249   0.0000       0.694874        18.9085 
 250   0.0000       0.703143        19.1335 
 251   0.0000       0.705931        19.2094 
 252   0.0000       0.718164        19.5422 
 253   0.0000       0.722285        19.6544 
 254   0.0000       0.730095        19.8669 
 255   0.0000       0.735303        20.0086 
 256   0.0000       0.739792        20.1308 
 257   0.0000       0.751799        20.4575 
 258   0.0000       0.753515        20.5042 
 259   0.0000       0.759028        20.6542 
 260   0.0000       0.769238        20.9320 
 261   0.0000       0.775453        21.1012 
 262   0.0000       0.793375        21.5888 
 263   0.0000       0.797555        21.7026 
 264   0.0000       0.810338        22.0504 
 265   0.0000       0.821264        22.3477 
 266   0.0000       0.827420        22.5152 
 267   0.0000       0.830085        22.5878 
 268   0.0000       0.851647        23.1745 
 269   0.0000       0.858026        23.3481 
 270   0.0000       0.863804        23.5053 
 271   0.0000       0.872769        23.7493 
 272   0.0000       0.901054        24.5189 
 273   0.0000       0.913548        24.8589 
 274   0.0000       0.921576        25.0774 
 275   0.0000       0.936360        25.4797 
 276   0.0000       0.942210        25.6388 
 277   0.0000       0.953846        25.9555 
 278   0.0000       0.962265        26.1846 
 279   0.0000       0.964313        26.2403 
 280   0.0000       0.965200        26.2644 
 281   0.0000       0.971434        26.4341 
 282   0.0000       0.979899        26.6644 
 283   0.0000       0.989576        26.9277 
 284   0.0000       1.002843        27.2887 
 285   0.0000       1.022539        27.8247 
 286   0.0000       1.029129        28.0040 
 287   0.0000       1.037099        28.2209 
 288   0.0000       1.046900        28.4876 
 289   0.0000       1.057016        28.7629 
 290   0.0000       1.072444        29.1827 
 291   0.0000       1.073528        29.2122 
 292   0.0000       1.084396        29.5079 
 293   0.0000       1.092272        29.7222 
 294   0.0000       1.097232        29.8572 
 295   0.0000       1.098566        29.8935 
 296   0.0000       1.106533        30.1103 
 297   0.0000       1.112123        30.2624 
 298   0.0000       1.121551        30.5190 
 299   0.0000       1.135252        30.8918 
 300   0.0000       1.140396        31.0318 
 301   0.0000       1.146150        31.1883 
 302   0.0000       1.157879        31.5075 
 303   0.0000       1.159154        31.5422 
 304   0.0000       1.166872        31.7522 
 305   0.0000       1.171814        31.8867 
 306   0.0000       1.180486        32.1227 
 307   0.0000       1.189973        32.3808 
 308   0.0000       1.196427        32.5564 
 309   0.0000       1.205246        32.7964 
 310   0.0000       1.213425        33.0190 
 311   0.0000       1.214257        33.0416 
 312   0.0000       1.224887        33.3309 
 313   0.0000       1.247015        33.9330 
 314   0.0000       1.252280        34.0763 
 315   0.0000       1.262510        34.3547 
 316   0.0000       1.264819        34.4175 
 317   0.0000       1.278531        34.7906 
 318   0.0000       1.281431        34.8695 
 319   0.0000       1.288346        35.0577 
 320   0.0000       1.301327        35.4109 
 321   0.0000       1.301362        35.4119 
 322   0.0000       1.306482        35.5512 
 323   0.0000       1.311345        35.6835 
 324   0.0000       1.327394        36.1202 
 325   0.0000       1.327710        36.1288 
 326   0.0000       1.340712        36.4826 
 327   0.0000       1.351881        36.7865 
 328   0.0000       1.378061        37.4990 
 329   0.0000       1.383393        37.6440 
 330   0.0000       1.388015        37.7698 
 331   0.0000       1.397372        38.0244 
 332   0.0000       1.419185        38.6180 
 333   0.0000       1.428906        38.8825 
 334   0.0000       1.438949        39.1558 
 335   0.0000       1.443433        39.2778 
 336   0.0000       1.450284        39.4642 
 337   0.0000       1.451053        39.4852 
 338   0.0000       1.456453        39.6321 
 339   0.0000       1.466386        39.9024 
 340   0.0000       1.469567        39.9890 
 341   0.0000       1.485801        40.4307 
 342   0.0000       1.490807        40.5669 
 343   0.0000       1.492263        40.6065 
 344   0.0000       1.501156        40.8485 
 345   0.0000       1.521447        41.4007 
 346   0.0000       1.523559        41.4582 
 347   0.0000       1.547128        42.0995 
 348   0.0000       1.575488        42.8712 
 349   0.0000       1.591769        43.3142 
 350   0.0000       1.603443        43.6319 
 351   0.0000       1.614359        43.9289 
 352   0.0000       1.619514        44.0692 
 353   0.0000       1.629048        44.3287 
 354   0.0000       1.634736        44.4834 
 355   0.0000       1.638643        44.5897 
 356   0.0000       1.644537        44.7501 
 357   0.0000       1.656502        45.0757 
 358   0.0000       1.661803        45.2200 
 359   0.0000       1.662420        45.2367 
 360   0.0000       1.664506        45.2935 
 361   0.0000       1.668544        45.4034 
 362   0.0000       1.674530        45.5663 
 363   0.0000       1.685856        45.8745 
 364   0.0000       1.691382        46.0248 
 365   0.0000       1.694642        46.1135 
 366   0.0000       1.700129        46.2629 
 367   0.0000       1.705351        46.4050 
 368   0.0000       1.709607        46.5208 
 369   0.0000       1.715390        46.6781 
 370   0.0000       1.719988        46.8033 
 371   0.0000       1.721482        46.8439 
 372   0.0000       1.723135        46.8889 
 373   0.0000       1.729693        47.0674 
 374   0.0000       1.732837        47.1529 
 375   0.0000       1.738973        47.3199 
 376   0.0000       1.743264        47.4366 
 377   0.0000       1.748269        47.5728 
 378   0.0000       1.752177        47.6792 
 379   0.0000       1.758234        47.8440 
 380   0.0000       1.766564        48.0706 
 381   0.0000       1.769927        48.1622 
 382   0.0000       1.774978        48.2996 
 383   0.0000       1.784102        48.5479 
 384   0.0000       1.790504        48.7221 
 385   0.0000       1.794304        48.8255 
 386   0.0000       1.800511        48.9944 
 387   0.0000       1.810717        49.2721 
 388   0.0000       1.816950        49.4417 
 389   0.0000       1.831098        49.8267 
 390   0.0000       1.836219        49.9661 
 391   0.0000       1.847294        50.2674 
 392   0.0000       1.851151        50.3724 
 393   0.0000       1.856627        50.5214 
 394   0.0000       1.865263        50.7564 
 395   0.0000       1.868241        50.8374 
 396   0.0000       1.875688        51.0401 
 397   0.0000       1.878545        51.1178 
 398   0.0000       1.893537        51.5258 
 399   0.0000       1.903230        51.7895 
 400   0.0000       1.905771        51.8587 
 401   0.0000       1.923753        52.3480 
 402   0.0000       1.926534        52.4237 
 403   0.0000       1.933643        52.6171 
 404   0.0000       1.942842        52.8674 
 405   0.0000       1.949579        53.0507 
 406   0.0000       1.961645        53.3791 
 407   0.0000       1.991162        54.1823 
 408   0.0000       2.001338        54.4592 
 409   0.0000       2.008029        54.6412 
 410   0.0000       2.013946        54.8023 
 411   0.0000       2.020978        54.9936 
 412   0.0000       2.043560        55.6081 
 413   0.0000       2.045243        55.6539 
 414   0.0000       2.057314        55.9823 
 415   0.0000       2.072072        56.3840 
 416   0.0000       2.082606        56.6706 
 417   0.0000       2.091470        56.9118 
 418   0.0000       2.104839        57.2756 
 419   0.0000       2.114068        57.5267 
 420   0.0000       2.122588        57.7586 
 421   0.0000       2.124854        57.8202 
 422   0.0000       2.132936        58.0401 
 423   0.0000       2.148504        58.4638 
 424   0.0000       2.153797        58.6078 
 425   0.0000       2.171130        59.0795 
 426   0.0000       2.180260        59.3279 
 427   0.0000       2.188801        59.5603 
 428   0.0000       2.196910        59.7810 
 429   0.0000       2.198497        59.8241 
 430   0.0000       2.206967        60.0546 
 431   0.0000       2.212010        60.1919 
 432   0.0000       2.214344        60.2554 
 433   0.0000       2.225114        60.5484 
 434   0.0000       2.236823        60.8671 
 435   0.0000       2.242445        61.0200 
 436   0.0000       2.247346        61.1534 
 437   0.0000       2.265412        61.6450 
 438   0.0000       2.270784        61.7912 
 439   0.0000       2.290610        62.3307 
 440   0.0000       2.306713        62.7689 
 441   0.0000       2.316484        63.0347 
 442   0.0000       2.329639        63.3927 
 443   0.0000       2.334246        63.5181 
 444   0.0000       2.351430        63.9857 
 445   0.0000       2.355496        64.0963 
 446   0.0000       2.384765        64.8928 
 447   0.0000       2.400404        65.3183 
 448   0.0000       2.429200        66.1019 
 449   0.0000       2.446248        66.5658 
 450   0.0000       2.458399        66.8964 
 451   0.0000       2.463403        67.0326 
 452   0.0000       2.470472        67.2250 
 453   0.0000       2.496266        67.9268 
 454   0.0000       2.497949        67.9727 
 455   0.0000       2.507624        68.2359 
 456   0.0000       2.516823        68.4862 
 457   0.0000       2.529473        68.8305 
 458   0.0000       2.548556        69.3497 
 459   0.0000       2.554979        69.5245 
 460   0.0000       2.573474        70.0278 
 461   0.0000       2.577031        70.1246 
 462   0.0000       2.589981        70.4770 
 463   0.0000       2.590775        70.4986 
 464   0.0000       2.602249        70.8108 
 465   0.0000       2.604149        70.8625 
 466   0.0000       2.606905        70.9375 
 467   0.0000       2.610549        71.0367 
 468   0.0000       2.623496        71.3889 
 469   0.0000       2.638137        71.7874 
 470   0.0000       2.644992        71.9739 
 471   0.0000       2.657960        72.3268 
 472   0.0000       2.688080        73.1464 
 473   0.0000       2.717493        73.9467 
 474   0.0000       2.724405        74.1348 
 475   0.0000       2.744983        74.6948 
 476   0.0000       2.751978        74.8851 
 477   0.0000       2.765614        75.2562 
 478   0.0000       2.776895        75.5632 
 479   0.0000       2.777888        75.5902 
 480   0.0000       2.786870        75.8346 
 481   0.0000       2.791872        75.9707 
 482   0.0000       2.802019        76.2468 
 483   0.0000       2.804859        76.3241 
 484   0.0000       2.833324        77.0987 
 485   0.0000       2.845548        77.4313 
 486   0.0000       2.850085        77.5548 
 487   0.0000       2.851178        77.5845 
 488   0.0000       2.859795        77.8190 
 489   0.0000       2.877312        78.2956 
 490   0.0000       2.897475        78.8443 
 491   0.0000       2.901837        78.9630 
 492   0.0000       2.904727        79.0416 
 493   0.0000       2.915317        79.3298 
 494   0.0000       2.931348        79.7660 
 495   0.0000       2.933767        79.8318 
 496   0.0000       2.937984        79.9466 
 497   0.0000       2.946289        80.1726 
 498   0.0000       2.953120        80.3585 
 499   0.0000       2.961974        80.5994 
 500   0.0000       2.965275        80.6892 
 501   0.0000       2.972522        80.8864 
 502   0.0000       2.974158        80.9310 
 503   0.0000       2.980920        81.1149 
 504   0.0000       2.994908        81.4956 
 505   0.0000       2.998166        81.5842 
 506   0.0000       3.026068        82.3435 
 507   0.0000       3.036778        82.6349 
 508   0.0000       3.042480        82.7901 
 509   0.0000       3.080299        83.8192 
 510   0.0000       3.092178        84.1424 
 511   0.0000       3.131459        85.2113 
 512   0.0000       3.134097        85.2831 
 513   0.0000       3.171367        86.2973 
 514   0.0000       3.196175        86.9723 
 515   0.0000       3.228187        87.8434 
 516   0.0000       3.235316        88.0374 
 517   0.0000       3.282727        89.3275 
 518   0.0000       3.303295        89.8872 
 519   0.0000       3.382171        92.0335 
 520   0.0000       3.407988        92.7361 
 521   0.0000       3.430262        93.3422 
 522   0.0000       3.441534        93.6489 
 523   0.0000       3.450441        93.8913 
 524   0.0000       3.482664        94.7681 
 525   0.0000       3.520611        95.8007 
 526   0.0000       3.533315        96.1464 
 527   0.0000       3.569178        97.1223 
 528   0.0000       3.594054        97.7992 
 529   0.0000       3.613907        98.3394 
 530   0.0000       3.693757       100.5122 
 531   0.0000       3.741086       101.8001 
 532   0.0000       3.803718       103.5044 

                    ********************************
                    * MULLIKEN POPULATION ANALYSIS *
                    ********************************

-----------------------
MULLIKEN ATOMIC CHARGES
-----------------------
   0 H :   -0.025019
   1 C :   -0.073969
   2 C :    0.167611
   3 O :   -0.243057
   4 C :    0.244525
   5 O :   -0.191237
   6 C :   -0.061979
   7 C :   -0.002567
   8 H :   -0.006291
   9 C :    0.015973
  10 C :   -0.013025
  11 O :   -0.182252
  12 C :    0.066909
  13 H :    0.049882
  14 H :    0.049043
  15 H :    0.030308
  16 C :   -0.020666
  17 H :   -0.019230
  18 C :    0.121796
  19 N :   -0.013278
  20 H :    0.135220
  21 C :    0.001310
  22 S :   -0.334679
  23 N :   -0.124741
  24 H :    0.140369
  25 C :    0.102287
  26 H :    0.033183
  27 H :    0.021597
  28 C :   -0.020795
  29 H :    0.019972
  30 H :    0.030194
  31 H :    0.028748
  32 C :   -0.029726
  33 H :   -0.005683
  34 C :   -0.031436
  35 H :   -0.000891
  36 C :    0.176007
  37 O :   -0.214332
  38 C :    0.472115
  39 F :   -0.154882
  40 F :   -0.162861
  41 F :   -0.131970
  42 C :   -0.018686
  43 H :   -0.017019
  44 C :    0.195865
  45 O :   -0.288042
  46 C :    0.168337
  47 H :    0.035230
  48 H :    0.037114
  49 H :    0.044717
Sum of atomic charges:   -0.0000000

--------------------------------
MULLIKEN REDUCED ORBITAL CHARGES
--------------------------------
  0 H s       :     0.999794  s :     0.999794
      pz      :     0.007366  p :     0.025225
      px      :     0.013211
      py      :     0.004648
  1 C s       :     3.332178  s :     3.332178
      pz      :     1.035873  p :     2.712999
      px      :     0.788854
      py      :     0.888272
      dz2     :     0.002784  d :     0.028791
      dxz     :     0.003101
      dyz     :     0.006446
      dx2y2   :     0.007925
      dxy     :     0.008535
  2 C s       :     2.961711  s :     2.961711
      pz      :     1.006632  p :     2.800602
      px      :     0.991556
      py      :     0.802414
      dz2     :     0.007585  d :     0.070076
      dxz     :     0.008215
      dyz     :     0.013511
      dx2y2   :     0.021127
      dxy     :     0.019637
  3 O s       :     3.718605  s :     3.718605
      pz      :     1.644759  p :     4.508238
      px      :     1.623133
      py      :     1.240345
      dz2     :     0.002409  d :     0.016214
      dxz     :     0.002500
      dyz     :     0.002971
      dx2y2   :     0.003043
      dxy     :     0.005291
  4 C s       :     3.004858  s :     3.004858
      pz      :     0.840408  p :     2.619935
      px      :     0.876662
      py      :     0.902865
      dz2     :     0.015334  d :     0.130682
      dxz     :     0.025692
      dyz     :     0.015912
      dx2y2   :     0.026792
      dxy     :     0.046952
  5 O s       :     3.743451  s :     3.743451
      pz      :     1.410861  p :     4.429873
      px      :     1.321951
      py      :     1.697061
      dz2     :     0.002535  d :     0.017912
      dxz     :     0.005426
      dyz     :     0.000795
      dx2y2   :     0.005251
      dxy     :     0.003906
  6 C s       :     3.100344  s :     3.100344
      pz      :     1.011426  p :     2.922632
      px      :     0.937637
      py      :     0.973569
      dz2     :     0.005316  d :     0.039003
      dxz     :     0.006922
      dyz     :     0.004746
      dx2y2   :     0.010679
      dxy     :     0.011340
  7 C s       :     3.360360  s :     3.360360
      pz      :     0.898733  p :     2.610090
      px      :     0.783407
      py      :     0.927950
      dz2     :     0.003592  d :     0.032117
      dxz     :     0.003681
      dyz     :     0.006258
      dx2y2   :     0.009527
      dxy     :     0.009058
  8 H s       :     0.981081  s :     0.981081
      pz      :     0.005729  p :     0.025209
      px      :     0.014996
      py      :     0.004485
  9 C s       :     3.079108  s :     3.079108
      pz      :     0.984462  p :     2.866248
      px      :     0.915269
      py      :     0.966517
      dz2     :     0.003808  d :     0.038670
      dxz     :     0.006872
      dyz     :     0.006061
      dx2y2   :     0.010742
      dxy     :     0.011187
 10 C s       :     3.155911  s :     3.155911
      pz      :     0.834598  p :     2.763995
      px      :     0.921997
      py      :     1.007401
      dz2     :     0.009364  d :     0.093120
      dxz     :     0.018851
      dyz     :     0.008920
      dx2y2   :     0.021378
      dxy     :     0.034607
 11 O s       :     3.745890  s :     3.745890
      pz      :     1.366245  p :     4.419222
      px      :     1.332201
      py      :     1.720776
      dz2     :     0.002359  d :     0.017140
      dxz     :     0.005182
      dyz     :     0.000697
      dx2y2   :     0.005090
      dxy     :     0.003812
 12 C s       :     2.910766  s :     2.910766
      pz      :     1.001668  p :     3.000794
      px      :     1.008483
      py      :     0.990644
      dz2     :     0.003664  d :     0.021531
      dxz     :     0.004634
      dyz     :     0.003812
      dx2y2   :     0.004194
      dxy     :     0.005226
 13 H s       :     0.924145  s :     0.924145
      pz      :     0.008955  p :     0.025974
      px      :     0.011725
      py      :     0.005293
 14 H s       :     0.925042  s :     0.925042
      pz      :     0.012442  p :     0.025915
      px      :     0.006555
      py      :     0.006918
 15 H s       :     0.945535  s :     0.945535
      pz      :     0.007268  p :     0.024156
      px      :     0.008958
      py      :     0.007930
 16 C s       :     3.311071  s :     3.311071
      pz      :     0.968362  p :     2.678351
      px      :     0.914537
      py      :     0.795452
      dz2     :     0.004406  d :     0.031244
      dxz     :     0.005738
      dyz     :     0.003670
      dx2y2   :     0.007409
      dxy     :     0.010021
 17 H s       :     0.994658  s :     0.994658
      pz      :     0.005298  p :     0.024572
      px      :     0.006450
      py      :     0.012824
 18 C s       :     2.954135  s :     2.954135
      pz      :     1.009427  p :     2.865706
      px      :     0.886111
      py      :     0.970168
      dz2     :     0.006277  d :     0.058364
      dxz     :     0.010300
      dyz     :     0.008023
      dx2y2   :     0.017664
      dxy     :     0.016100
 19 N s       :     3.309024  s :     3.309024
      pz      :     1.273377  p :     3.683013
      px      :     1.076824
      py      :     1.332812
      dz2     :     0.003575  d :     0.021241
      dxz     :     0.005989
      dyz     :     0.002806
      dx2y2   :     0.004241
      dxy     :     0.004630
 20 H s       :     0.818906  s :     0.818906
      pz      :     0.014133  p :     0.045875
      px      :     0.012894
      py      :     0.018847
 21 C s       :     3.064261  s :     3.064261
      pz      :     0.921508  p :     2.845164
      px      :     0.967360
      py      :     0.956296
      dz2     :     0.021004  d :     0.089264
      dxz     :     0.025129
      dyz     :     0.011434
      dx2y2   :     0.013242
      dxy     :     0.018455
 22 S s       :     5.942633  s :     5.942633
      pz      :     3.758490  p :    10.342084
      px      :     2.988480
      py      :     3.595114
      dz2     :     0.007965  d :     0.049962
      dxz     :     0.008078
      dyz     :     0.000856
      dx2y2   :     0.020080
      dxy     :     0.012982
 23 N s       :     3.359444  s :     3.359444
      pz      :     1.229832  p :     3.743149
      px      :     1.068019
      py      :     1.445298
      dz2     :     0.006022  d :     0.022148
      dxz     :     0.004124
      dyz     :     0.004478
      dx2y2   :     0.005245
      dxy     :     0.002278
 24 H s       :     0.813839  s :     0.813839
      pz      :     0.008535  p :     0.045792
      px      :     0.025880
      py      :     0.011378
 25 C s       :     2.991558  s :     2.991558
      pz      :     0.846057  p :     2.859222
      px      :     1.019399
      py      :     0.993766
      dz2     :     0.012880  d :     0.046932
      dxz     :     0.010464
      dyz     :     0.010304
      dx2y2   :     0.008327
[...]
      dx2y2   :     0.012702
      dxy     :     0.006371
 24 H s       :     0.778311  s :     0.778311
      pz      :     0.023218  p :     0.128742
      px      :     0.073055
      py      :     0.032469
 25 C s       :     2.833477  s :     2.833477
      pz      :     0.929815  p :     3.019875
      px      :     1.046825
      py      :     1.043234
      dz2     :     0.030354  d :     0.114093
      dxz     :     0.023504
      dyz     :     0.027054
      dx2y2   :     0.022654
      dxy     :     0.010527
 26 H s       :     0.912785  s :     0.912785
      pz      :     0.014276  p :     0.074378
      px      :     0.045928
      py      :     0.014175
 27 H s       :     0.902607  s :     0.902607
      pz      :     0.011998  p :     0.067324
      px      :     0.016066
      py      :     0.039261
 28 C s       :     2.840814  s :     2.840814
      pz      :     1.028418  p :     3.149518
      px      :     1.067567
      py      :     1.053533
      dz2     :     0.014302  d :     0.068707
      dxz     :     0.012271
      dyz     :     0.015396
      dx2y2   :     0.019437
      dxy     :     0.007300
 29 H s       :     0.904930  s :     0.904930
      pz      :     0.014825  p :     0.068217
      px      :     0.039767
      py      :     0.013625
 30 H s       :     0.907519  s :     0.907519
      pz      :     0.014205  p :     0.068262
      px      :     0.016240
      py      :     0.037818
 31 H s       :     0.899110  s :     0.899110
      pz      :     0.031356  p :     0.068270
      px      :     0.019869
      py      :     0.017045
 32 C s       :     2.859521  s :     2.859521
      pz      :     0.983719  p :     3.062455
      px      :     1.044351
      py      :     1.034385
      dz2     :     0.006823  d :     0.087640
      dxz     :     0.013131
      dyz     :     0.011397
      dx2y2   :     0.026534
      dxy     :     0.029753
 33 H s       :     0.886528  s :     0.886528
      pz      :     0.020196  p :     0.077686
      px      :     0.021800
      py      :     0.035690
 34 C s       :     2.857020  s :     2.857020
      pz      :     1.055381  p :     3.147074
      px      :     1.051350
      py      :     1.040342
      dz2     :     0.008518  d :     0.085800
      dxz     :     0.011361
      dyz     :     0.012335
      dx2y2   :     0.027661
      dxy     :     0.025924
 35 H s       :     0.887144  s :     0.887144
      pz      :     0.018629  p :     0.078541
      px      :     0.027370
      py      :     0.032542
 36 C s       :     2.839406  s :     2.839406
      pz      :     0.985410  p :     2.937188
      px      :     0.858871
      py      :     1.092908
      dz2     :     0.014609  d :     0.160874
      dxz     :     0.026066
      dyz     :     0.024465
      dx2y2   :     0.047518
      dxy     :     0.048217
 37 O s       :     3.420747  s :     3.420747
      pz      :     1.694060  p :     4.579107
      px      :     1.290209
      py      :     1.594837
      dz2     :     0.004783  d :     0.033171
      dxz     :     0.005155
      dyz     :     0.003238
      dx2y2   :     0.005660
      dxy     :     0.014335
 38 C s       :     2.813321  s :     2.813321
      pz      :     0.854363  p :     2.619128
      px      :     0.885615
      py      :     0.879150
      dz2     :     0.083145  d :     0.471663
      dxz     :     0.076662
      dyz     :     0.123264
      dx2y2   :     0.072472
      dxy     :     0.116119
 39 F s       :     3.741639  s :     3.741639
      pz      :     1.650172  p :     5.301493
      px      :     1.857845
      py      :     1.793475
      dz2     :     0.003433  d :     0.013010
      dxz     :     0.002518
      dyz     :     0.004981
      dx2y2   :     0.000881
      dxy     :     0.001197
 40 F s       :     3.743889  s :     3.743889
      pz      :     1.708099  p :     5.304284
      px      :     1.886819
      py      :     1.709366
      dz2     :     0.002027  d :     0.012786
      dxz     :     0.001350
      dyz     :     0.006109
      dx2y2   :     0.001945
      dxy     :     0.001354
 41 F s       :     3.730826  s :     3.730826
      pz      :     1.854301  p :     5.293260
      px      :     1.633888
      py      :     1.805071
      dz2     :     0.001737  d :     0.013241
      dxz     :     0.002727
      dyz     :     0.001293
      dx2y2   :     0.002562
      dxy     :     0.004922
 42 C s       :     2.860197  s :     2.860197
      pz      :     1.043556  p :     3.119915
      px      :     1.037728
      py      :     1.038630
      dz2     :     0.008379  d :     0.082394
      dxz     :     0.013111
      dyz     :     0.008781
      dx2y2   :     0.025254
      dxy     :     0.026868
 43 H s       :     0.881730  s :     0.881730
      pz      :     0.017381  p :     0.075024
      px      :     0.014570
      py      :     0.043073
 44 C s       :     2.831903  s :     2.831903
      pz      :     0.968561  p :     2.940659
      px      :     0.987316
      py      :     0.984783
      dz2     :     0.016316  d :     0.179705
      dxz     :     0.021662
      dyz     :     0.032272
      dx2y2   :     0.054054
      dxy     :     0.055401
 45 O s       :     3.435513  s :     3.435513
      pz      :     1.687498  p :     4.603773
      px      :     1.339124
      py      :     1.577151
      dz2     :     0.003993  d :     0.032182
      dxz     :     0.005228
      dyz     :     0.003907
      dx2y2   :     0.008434
      dxy     :     0.010620
 46 C s       :     2.848057  s :     2.848057
      pz      :     1.045315  p :     2.952159
      px      :     0.819177
      py      :     1.087667
      dz2     :     0.020100  d :     0.115575
      dxz     :     0.027943
      dyz     :     0.016902
      dx2y2   :     0.025886
      dxy     :     0.024744
 47 H s       :     0.907703  s :     0.907703
      pz      :     0.024737  p :     0.067861
      px      :     0.020514
      py      :     0.022610
 48 H s       :     0.907618  s :     0.907618
      pz      :     0.038759  p :     0.067831
      px      :     0.008943
      py      :     0.020129
 49 H s       :     0.900950  s :     0.900950
      pz      :     0.013021  p :     0.065602
      px      :     0.014249
      py      :     0.038332


                      *****************************
                      * MAYER POPULATION ANALYSIS *
                      *****************************

  NA   - Mulliken gross atomic population
  ZA   - Total nuclear charge
  QA   - Mulliken gross atomic charge
  VA   - Mayer's total valence
  BVA  - Mayer's bonded valence
  FA   - Mayer's free valence

  ATOM       NA         ZA         QA         VA         BVA        FA
  0 H      1.0063     1.0000    -0.0063     1.0200     1.0200     0.0000
  1 C      6.0713     6.0000    -0.0713     3.7554     3.7554     0.0000
  2 C      5.8353     6.0000     0.1647     3.8995     3.8995     0.0000
  3 O      8.2367     8.0000    -0.2367     2.2761     2.2761    -0.0000
  4 C      5.7445     6.0000     0.2555     4.1879     4.1879    -0.0000
  5 O      8.2187     8.0000    -0.2187     2.3049     2.3049    -0.0000
  6 C      6.0631     6.0000    -0.0631     3.6963     3.6963    -0.0000
  7 C      6.0111     6.0000    -0.0111     3.8394     3.8394    -0.0000
  8 H      1.0230     1.0000    -0.0230     1.0488     1.0488     0.0000
  9 C      5.9855     6.0000     0.0145     3.6240     3.6240     0.0000
 10 C      6.0098     6.0000    -0.0098     4.2494     4.2494    -0.0000
 11 O      8.2147     8.0000    -0.2147     2.2979     2.2979    -0.0000
 12 C      5.9335     6.0000     0.0665     3.8979     3.8979    -0.0000
 13 H      0.9368     1.0000     0.0632     0.9967     0.9967     0.0000
 14 H      0.9380     1.0000     0.0620     0.9968     0.9968     0.0000
 15 H      0.9754     1.0000     0.0246     1.0188     1.0188     0.0000
 16 C      6.0084     6.0000    -0.0084     3.7858     3.7858    -0.0000
 17 H      0.9955     1.0000     0.0045     1.0191     1.0191    -0.0000
 18 C      5.8832     6.0000     0.1168     3.8864     3.8864    -0.0000
 19 N      7.0121     7.0000    -0.0121     3.2952     3.2952     0.0000
 20 H      0.8508     1.0000     0.1492     1.0199     1.0199    -0.0000
 21 C      5.9776     6.0000     0.0224     4.0881     4.0881     0.0000
 22 S     16.4137    16.0000    -0.4137     1.8091     1.8091     0.0000
 23 N      7.1184     7.0000    -0.1184     3.4199     3.4199     0.0000
 24 H      0.8370     1.0000     0.1630     0.9951     0.9951    -0.0000
 25 C      5.8948     6.0000     0.1052     4.0197     4.0197    -0.0000
 26 H      0.9804     1.0000     0.0196     1.0498     1.0498     0.0000
 27 H      0.9668     1.0000     0.0332     0.9799     0.9799     0.0000
 28 C      6.0228     6.0000    -0.0228     4.0224     4.0224     0.0000
 29 H      0.9686     1.0000     0.0314     0.9930     0.9930     0.0000
 30 H      0.9785     1.0000     0.0215     1.0037     1.0037    -0.0000
 31 H      0.9690     1.0000     0.0310     0.9908     0.9908     0.0000
 32 C      6.0140     6.0000    -0.0140     3.7718     3.7718     0.0000
 33 H      0.9933     1.0000     0.0067     1.0358     1.0358    -0.0000
 34 C      6.0489     6.0000    -0.0489     3.7576     3.7576     0.0000
 35 H      0.9993     1.0000     0.0007     1.0518     1.0518    -0.0000
 36 C      5.8236     6.0000     0.1764     3.8259     3.8259     0.0000
 37 O      8.2163     8.0000    -0.2163     2.2400     2.2400    -0.0000
 38 C      5.5263     6.0000     0.4737     4.6885     4.6885     0.0000
 39 F      9.1597     9.0000    -0.1597     1.1979     1.1979     0.0000
 40 F      9.1635     9.0000    -0.1635     1.1940     1.1940     0.0000
 41 F      9.1351     9.0000    -0.1351     1.2179     1.2179    -0.0000
 42 C      6.0282     6.0000    -0.0282     3.7693     3.7693     0.0000
 43 H      1.0117     1.0000    -0.0117     1.0139     1.0139     0.0000
 44 C      5.8050     6.0000     0.1950     3.8606     3.8606     0.0000
 45 O      8.2947     8.0000    -0.2947     2.2669     2.2669    -0.0000
 46 C      5.8379     6.0000     0.1621     3.9069     3.9069     0.0000
 47 H      0.9549     1.0000     0.0451     0.9897     0.9897     0.0000
 48 H      0.9548     1.0000     0.0452     0.9894     0.9894    -0.0000
 49 H      0.9517     1.0000     0.0483     0.9914     0.9914    -0.0000

  Mayer bond orders larger than 0.100000
B(  0-H ,  1-C ) :   1.0055 B(  1-C ,  2-C ) :   1.3559 B(  1-C , 44-C ) :   1.2479 
B(  2-C ,  3-O ) :   0.9565 B(  2-C , 34-C ) :   1.3238 B(  3-O ,  4-C ) :   1.1543 
B(  4-C ,  5-O ) :   2.0547 B(  4-C ,  6-C ) :   0.9352 B(  6-C ,  7-C ) :   1.3471 
B(  6-C , 32-C ) :   1.3170 B(  7-C ,  8-H ) :   0.9941 B(  7-C ,  9-C ) :   1.3102 
B(  9-C , 10-C ) :   0.9135 B(  9-C , 16-C ) :   1.3503 B( 10-C , 11-O ) :   2.1157 
B( 10-C , 12-C ) :   1.1023 B( 12-C , 13-H ) :   0.9231 B( 12-C , 14-H ) :   0.9262 
B( 12-C , 15-H ) :   0.9372 B( 16-C , 17-H ) :   0.9856 B( 16-C , 18-C ) :   1.3023 
B( 18-C , 19-N ) :   1.0875 B( 18-C , 32-C ) :   1.3018 B( 19-N , 20-H ) :   0.8883 
B( 19-N , 21-C ) :   1.1968 B( 21-C , 22-S ) :   1.4316 B( 21-C , 23-N ) :   1.3331 
B( 23-N , 24-H ) :   0.8998 B( 23-N , 25-C ) :   0.9868 B( 25-C , 26-H ) :   0.9151 
B( 25-C , 27-H ) :   0.9399 B( 25-C , 28-C ) :   1.1162 B( 28-C , 29-H ) :   0.9687 
B( 28-C , 30-H ) :   0.9635 B( 28-C , 31-H ) :   0.9607 B( 32-C , 33-H ) :   0.9882 
B( 34-C , 35-H ) :   0.9851 B( 34-C , 36-C ) :   1.2798 B( 36-C , 37-O ) :   0.9631 
B( 36-C , 42-C ) :   1.3769 B( 37-O , 38-C ) :   1.1961 B( 38-C , 39-F ) :   1.1273 
B( 38-C , 40-F ) :   1.1149 B( 38-C , 41-F ) :   1.1687 B( 42-C , 43-H ) :   1.0122 
B( 42-C , 44-C ) :   1.2962 B( 44-C , 45-O ) :   1.1686 B( 45-O , 46-C ) :   0.9424 
B( 46-C , 47-H ) :   0.9653 B( 46-C , 48-H ) :   0.9654 B( 46-C , 49-H ) :   0.9730 



------------------
HIRSHFELD ANALYSIS
------------------

Total integrated alpha density =    118.000099105
Total integrated beta density  =    118.000099105

  ATOM     CHARGE      SPIN    
   0 H    0.048998    0.000000
   1 C   -0.071022    0.000000
   2 C    0.079156    0.000000
   3 O   -0.084420    0.000000
   4 C    0.215819    0.000000
   5 O   -0.271647    0.000000
   6 C   -0.011969    0.000000
   7 C   -0.023670    0.000000
   8 H    0.032380    0.000000
   9 C   -0.010236    0.000000
  10 C    0.167274    0.000000
  11 O   -0.269111    0.000000
  12 C   -0.070401    0.000000
  13 H    0.052413    0.000000
  14 H    0.051778    0.000000
  15 H    0.038942    0.000000
  16 C   -0.015963    0.000000
  17 H    0.058052    0.000000
  18 C    0.062871    0.000000
  19 N   -0.070145    0.000000
  20 H    0.140001    0.000000
  21 C    0.121500    0.000000
  22 S   -0.395879    0.000000
  23 N   -0.065189    0.000000
  24 H    0.136281    0.000000
  25 C    0.025469    0.000000
  26 H    0.021110    0.000000
  27 H    0.040025    0.000000
  28 C   -0.068453    0.000000
  29 H    0.031494    0.000000
  30 H    0.024943    0.000000
  31 H    0.035672    0.000000
  32 C   -0.028237    0.000000
  33 H    0.043334    0.000000
  34 C   -0.083641    0.000000
  35 H    0.033353    0.000000
  36 C    0.075839    0.000000
  37 O   -0.124417    0.000000
  38 C    0.336403    0.000000
  39 F   -0.109206    0.000000
  40 F   -0.110686    0.000000
  41 F   -0.105049    0.000000
  42 C   -0.066745    0.000000
  43 H    0.050947    0.000000
  44 C    0.085445    0.000000
  45 O   -0.123794    0.000000
  46 C    0.032219    0.000000
  47 H    0.043376    0.000000
  48 H    0.043506    0.000000
  49 H    0.051081    0.000000

  TOTAL  -0.000198    0.000000

-------
TIMINGS
-------

Total SCF time: 0 days 0 hours 4 min 52 sec 

Total time                  ....     292.646 sec
Sum of individual times     ....     266.559 sec  ( 91.1%)

Fock matrix formation       ....     250.238 sec  ( 85.5%)
  Split-RI-J                ....      53.099 sec  ( 21.2% of F)
  XC integration            ....      77.739 sec  ( 31.1% of F)
    Basis function eval.    ....      20.059 sec  ( 25.8% of XC)
    Density eval.           ....      12.474 sec  ( 16.0% of XC)
    XC-Functional eval.     ....       4.432 sec  (  5.7% of XC)
    XC-Potential eval.      ....       8.381 sec  ( 10.8% of XC)
Diagonalization             ....       0.166 sec  (  0.1%)
Density matrix formation    ....       0.126 sec  (  0.0%)
Population analysis         ....       6.179 sec  (  2.1%)
Initial guess               ....       0.087 sec  (  0.0%)
Orbital Transformation      ....       0.000 sec  (  0.0%)
Orbital Orthonormalization  ....       0.068 sec  (  0.0%)
DIIS solution               ....       0.040 sec  (  0.0%)
SOSCF solution              ....       2.904 sec  (  1.0%)
Grid generation             ....       6.819 sec  (  2.3%)

Maximum memory used throughout the entire SCF-calculation: 240.7 MB


-------------------------------------------------------------------------------
                          DFT DISPERSION CORRECTION                            
                                                                               
                              DFTD3 V3.1  Rev 1                                
                          USING Becke-Johnson damping                          
-------------------------------------------------------------------------------
The revPBE functional is recognized
Active option DFTDOPT                   ...         4   

molecular C6(AA) [au] = 29901.900635 


            DFT-D V3
 parameters
 s6 scaling factor         :     1.0000 
 a1 scaling factor         :     0.5238 
 s8 scaling factor         :     2.3550 
 a2 scaling factor         :     3.5016 
 ad hoc parameters k1-k3   :    16.0000     1.3333    -4.0000 

 Edisp/kcal,au: -96.048948954487  -0.153063726810 
 E6   /kcal   : -39.187932403 
 E8   /kcal   : -56.861016552 
 % E8         :  59.200040365 

-------------------------   ----------------
Dispersion correction           -0.153063727
-------------------------   ----------------


-------------------------   --------------------
FINAL SINGLE POINT ENERGY     -1955.328063388789
-------------------------   --------------------


                            ***************************************
                            *     ORCA property calculations      *
                            ***************************************

                                    ---------------------
                                    Active property flags
                                    ---------------------
   (+) Dipole Moment


------------------------------------------------------------------------------
                       ORCA ELECTRIC PROPERTIES CALCULATION
------------------------------------------------------------------------------

Dipole Moment Calculation                       ... on
Quadrupole Moment Calculation                   ... off
Polarizability Calculation                      ... off
GBWName                                         ... /home/sk77/PycharmProjects/omg_database_publication/run_calculation/calculation_results/pareto_greedy/0/reaction_10005258/opt_n_1/conformer_8/property_cosmo.gbw
Electron density                                ... /home/sk77/PycharmProjects/omg_database_publication/run_calculation/calculation_results/pareto_greedy/0/reaction_10005258/opt_n_1/conformer_8/property_cosmo.scfp
The origin for moment calculation is the CENTER OF MASS  = ( 1.113607, -0.645795 -0.051253)

-------------
DIPOLE MOMENT
-------------
                                X             Y             Z
Electronic contribution:     41.08530     -24.40388       0.77478
Nuclear contribution   :    -42.97685      24.41471      -0.21745
                        -----------------------------------------
Total Dipole Moment    :     -1.89156       0.01083       0.55733
                        -----------------------------------------
Magnitude (a.u.)       :      1.97198
Magnitude (Debye)      :      5.01238



--------------------
Rotational spectrum 
--------------------
 
Rotational constants in cm-1:     0.004836     0.002196     0.001757 
Rotational constants in MHz :   144.975063    65.840106    52.684192 

 Dipole components along the rotational axes: 
x,y,z [a.u.] :    -1.061178    -1.660398     0.075445 
x,y,z [Debye]:    -2.697301    -4.220397     0.191765 

 
------------------------------------------------------------------------------
                      ORCA CHELPG CHARGES GENERATION
------------------------------------------------------------------------------

GBW file                           ... /home/sk77/PycharmProjects/omg_database_publication/run_calculation/calculation_results/pareto_greedy/0/reaction_10005258/opt_n_1/conformer_8/property_cosmo.gbw
Density                            ... /home/sk77/PycharmProjects/omg_database_publication/run_calculation/calculation_results/pareto_greedy/0/reaction_10005258/opt_n_1/conformer_8/property_cosmo.scfp

Reading the GBW file               ... done
Reading the density                ... done

Grid spacing                       ...     0.300000
Point Cut-Off                      ...     2.800000
Van-der-Waals Radii                ...        COSMO
Total charge                       ...            0


Number of points X direction       ...           54
Number of points Y direction       ...           61
Number of points Z direction       ...           45
Maximum number of possible points  ...       148230
Final number of points             ...        26714



Timings for individual modules:

Sum of individual times         ...      321.907 sec (=   5.365 min)
GTO integral calculation        ...        5.601 sec (=   0.093 min)   1.7 %
SCF iterations                  ...      293.607 sec (=   4.893 min)  91.2 %
CHELPG charge generation        ...       22.698 sec (=   0.378 min)   7.1 %



                             ****ORCA TERMINATED NORMALLY****
TOTAL RUN TIME: 0 days 0 hours 36 minutes 52 seconds 469 msec
