50
 energy: -96.272497286377 gnorm: 0.000341106731 xtb: 6.6.1 (8d0f1dd)
H            2.89397217787393       -1.69929871606254       -1.79316062015043
C            2.01985032606928       -2.28488497638569       -2.02060120755317
C            0.75836990738050       -1.77711395701799       -1.78424124102730
O            0.68795870389662       -0.48232488120268       -1.29978385510934
C           -0.15687737735994       -0.14383881262449       -0.31214381670340
O           -0.87997078178494       -0.92758236947299        0.26144790413941
C           -0.07325423859007        1.30169211065939        0.01315352799645
C            0.83610011717062        2.13800088633809       -0.62506892050997
H            1.49733115332163        1.72575971237021       -1.36610396603937
C            0.85718168277782        3.49301933159552       -0.30143780799169
C            1.78513978507608        4.46667325039030       -0.94997286966868
O            1.67256105547678        5.66237237916659       -0.74960689492412
C            2.85161067588986        3.90493051087995       -1.84265234393908
H            3.42895720164122        3.15653090388775       -1.30728688546576
H            2.39044986733461        3.43253667193117       -2.70638500952121
H            3.50325189397267        4.70669953003521       -2.17782912383218
C           -0.01712840709409        3.97861156047191        0.66526017529187
H            0.01013329319034        5.03402459058549        0.89377142807355
C           -0.91239739017359        3.14148768773987        1.33504199652542
N           -1.76052596769843        3.72684396052807        2.26766782134913
H           -1.90401958362165        4.72207229815651        2.14918106248517
C           -2.41651881509231        3.22133945382896        3.34879061885470
S           -3.53563941157199        4.22852459541302        4.08970782806984
N           -2.13317863053252        1.99411106993749        3.77598730792360
H           -1.34477120896672        1.51544259789533        3.36212564825856
C           -2.70250250837424        1.35658159304981        4.94123837484590
H           -3.47197416542035        2.02009471775166        5.33951634372690
H           -3.17101208340029        0.41904654265576        4.62812456151010
C           -1.63228261151257        1.08052706855763        5.99294932989522
H           -0.86139217959747        0.43070231956004        5.58718757469893
H           -1.17538038611053        2.01149523400451        6.31824016549016
H           -2.08346299227461        0.59407021198114        6.85146986166743
C           -0.94615664575468        1.79392122593165        0.98279076675663
H           -1.66644896419923        1.10943761289017        1.40127112690380
C           -0.38991264617959       -2.51086828094952       -2.07590416024906
H           -1.35986302615887       -2.08425861588913       -1.88565882565171
C           -0.21897704949144       -3.77811263275754       -2.59598559013929
O           -1.29396957459028       -4.63118065499709       -2.93665533055964
C           -2.53173231348792       -4.28025301238450       -2.69135890756464
F           -2.94950598626361       -3.17978877017826       -3.34949989302023
F           -3.34454877071995       -5.26686106925169       -3.07088946012349
F           -2.80692978137338       -4.04303565354856       -1.39506609662151
C            1.03231401902420       -4.32069473246330       -2.84080443362918
H            1.08206826152610       -5.31411615537559       -3.24912599746544
C            2.16979907110976       -3.56787401897928       -2.55708752806999
O            3.43227258762291       -3.98311468610315       -2.75704111054312
C            3.64987005455188       -5.28092395970523       -3.29102461494866
H            3.24409999523988       -6.04859824971801       -2.62959453079921
H            3.20752793619081       -5.37406538627085       -4.28466250081260
H            4.72949373106176       -5.38774003686444       -3.35829988182005
