
                                 *****************
                                 * O   R   C   A *
                                 *****************

                                            #,                                       
                                            ###                                      
                                            ####                                     
                                            #####                                    
                                            ######                                   
                                           ########,                                 
                                     ,,################,,,,,                         
                               ,,#################################,,                 
                          ,,##########################################,,             
                       ,#########################################, ''#####,          
                    ,#############################################,,   '####,        
                  ,##################################################,,,,####,       
                ,###########''''           ''''###############################       
              ,#####''   ,,,,##########,,,,          '''####'''          '####       
            ,##' ,,,,###########################,,,                        '##       
           ' ,,###''''                  '''############,,,                           
         ,,##''                                '''############,,,,        ,,,,,,###''
      ,#''                                            '''#######################'''  
     '                                                          ''''####''''         
             ,#######,   #######,   ,#######,      ##                                
            ,#'     '#,  ##    ##  ,#'     '#,    #''#        ######   ,####,        
            ##       ##  ##   ,#'  ##            #'  '#       #        #'  '#        
            ##       ##  #######   ##           ,######,      #####,   #    #        
            '#,     ,#'  ##    ##  '#,     ,#' ,#      #,         ##   #,  ,#        
             '#######'   ##     ##  '#######'  #'      '#     #####' # '####'        



                  #######################################################
                  #                        -***-                        #
                  #          Department of theory and spectroscopy      #
                  #    Directorship and core code : Frank Neese         #
                  #        Max Planck Institute fuer Kohlenforschung    #
                  #                Kaiser Wilhelm Platz 1               #
                  #                 D-45470 Muelheim/Ruhr               #
                  #                      Germany                        #
                  #                                                     #
                  #                  All rights reserved                #
                  #                        -***-                        #
                  #######################################################


                         Program Version 5.0.3 -  RELEASE  -


 With contributions from (in alphabetic order):
   Daniel Aravena         : Magnetic Suceptibility
   Michael Atanasov       : Ab Initio Ligand Field Theory (pilot matlab implementation)
   Alexander A. Auer      : GIAO ZORA, VPT2 properties, NMR spectrum
   Ute Becker             : Parallelization
   Giovanni Bistoni       : ED, misc. LED, open-shell LED, HFLD
   Martin Brehm           : Molecular dynamics
   Dmytro Bykov           : SCF Hessian
   Vijay G. Chilkuri      : MRCI spin determinant printing, contributions to CSF-ICE
   Dipayan Datta          : RHF DLPNO-CCSD density
   Achintya Kumar Dutta   : EOM-CC, STEOM-CC
   Dmitry Ganyushin       : Spin-Orbit,Spin-Spin,Magnetic field MRCI
   Miquel Garcia          : C-PCM and meta-GGA Hessian, CC/C-PCM, Gaussian charge scheme
   Yang Guo               : DLPNO-NEVPT2, F12-NEVPT2, CIM, IAO-localization
   Andreas Hansen         : Spin unrestricted coupled pair/coupled cluster methods
   Benjamin Helmich-Paris : MC-RPA, TRAH-SCF, COSX integrals
   Lee Huntington         : MR-EOM, pCC
   Robert Izsak           : Overlap fitted RIJCOSX, COSX-SCS-MP3, EOM
   Marcus Kettner         : VPT2
   Christian Kollmar      : KDIIS, OOCD, Brueckner-CCSD(T), CCSD density, CASPT2, CASPT2-K
   Simone Kossmann        : Meta GGA functionals, TD-DFT gradient, OOMP2, MP2 Hessian
   Martin Krupicka        : Initial AUTO-CI
   Lucas Lang             : DCDCAS
   Marvin Lechner         : AUTO-CI (C++ implementation), FIC-MRCC
   Dagmar Lenk            : GEPOL surface, SMD
   Dimitrios Liakos       : Extrapolation schemes; Compound Job, initial MDCI parallelization
   Dimitrios Manganas     : Further ROCIS development; embedding schemes
   Dimitrios Pantazis     : SARC Basis sets
   Anastasios Papadopoulos: AUTO-CI, single reference methods and gradients
   Taras Petrenko         : DFT Hessian,TD-DFT gradient, ASA, ECA, R-Raman, ABS, FL, XAS/XES, NRVS
   Peter Pinski           : DLPNO-MP2, DLPNO-MP2 Gradient
   Christoph Reimann      : Effective Core Potentials
   Marius Retegan         : Local ZFS, SOC
   Christoph Riplinger    : Optimizer, TS searches, QM/MM, DLPNO-CCSD(T), (RO)-DLPNO pert. Triples
   Tobias Risthaus        : Range-separated hybrids, TD-DFT gradient, RPA, STAB
   Michael Roemelt        : Original ROCIS implementation
   Masaaki Saitow         : Open-shell DLPNO-CCSD energy and density
   Barbara Sandhoefer     : DKH picture change effects
   Avijit Sen             : IP-ROCIS
   Kantharuban Sivalingam : CASSCF convergence, NEVPT2, FIC-MRCI
   Bernardo de Souza      : ESD, SOC TD-DFT
   Georgi Stoychev        : AutoAux, RI-MP2 NMR, DLPNO-MP2 response
   Willem Van den Heuvel  : Paramagnetic NMR
   Boris Wezisla          : Elementary symmetry handling
   Frank Wennmohs         : Technical directorship


 We gratefully acknowledge several colleagues who have allowed us to
 interface, adapt or use parts of their codes:
   Stefan Grimme, W. Hujo, H. Kruse, P. Pracht,  : VdW corrections, initial TS optimization,
                  C. Bannwarth, S. Ehlert          DFT functionals, gCP, sTDA/sTD-DF
   Ed Valeev, F. Pavosevic, A. Kumar             : LibInt (2-el integral package), F12 methods
   Garnet Chan, S. Sharma, J. Yang, R. Olivares  : DMRG
   Ulf Ekstrom                                   : XCFun DFT Library
   Mihaly Kallay                                 : mrcc  (arbitrary order and MRCC methods)
   Jiri Pittner, Ondrej Demel                    : Mk-CCSD
   Frank Weinhold                                : gennbo (NPA and NBO analysis)
   Christopher J. Cramer and Donald G. Truhlar   : smd solvation model
   Lars Goerigk                                  : TD-DFT with DH, B97 family of functionals
   V. Asgeirsson, H. Jonsson                     : NEB implementation
   FAccTs GmbH                                   : IRC, NEB, NEB-TS, DLPNO-Multilevel, CI-OPT
                                                   MM, QMMM, 2- and 3-layer-ONIOM, Crystal-QMMM,
                                                   LR-CPCM, SF, NACMEs, symmetry and pop. for TD-DFT,
                                                   nearIR, NL-DFT gradient (VV10), updates on ESD,
                                                   ML-optimized integration grids
   S Lehtola, MJT Oliveira, MAL Marques          : LibXC Library
   Liviu Ungur et al                             : ANISO software


 Your calculation uses the libint2 library for the computation of 2-el integrals
 For citations please refer to: http://libint.valeyev.net

 Your ORCA version has been built with support for libXC version: 5.1.0
 For citations please refer to: https://tddft.org/programs/libxc/

 This ORCA versions uses:
   CBLAS   interface :  Fast vector & matrix operations
   LAPACKE interface :  Fast linear algebra routines
   SCALAPACK package :  Parallel linear algebra routines
   Shared memory     :  Shared parallel matrices
   BLAS/LAPACK       :  OpenBLAS 0.3.15  USE64BITINT DYNAMIC_ARCH NO_AFFINITY SkylakeX SINGLE_THREADED
        Core in use  :  SkylakeX
   Copyright (c) 2011-2014, The OpenBLAS Project




***************************************
The coordinates will be read from file: /home/sk77/PycharmProjects/omg_database_publication/run_calculation/calculation_results/pareto_greedy/0/reaction_10005258/opt_n_1/conformer_10/geometry.xtbopt.xyz
***************************************


Your calculation utilizes the atom-pairwise dispersion correction
with the Becke-Johnson damping scheme (D3BJ)
Cite in your paper:
S.Grimme, S.Ehrlich, L.Goerigk, J Comput Chem, (2011), 32, 1456–1465 
S.Grimme, J.Antony, S.Ehrlich and H.Krieg, J.Chem.Phys., 132, (2010), 154104 
   

================================================================================

----- Orbital basis set information -----
Your calculation utilizes the basis: def2-SVP
   F. Weigend and R. Ahlrichs, Phys. Chem. Chem. Phys. 7, 3297 (2005).

----- AuxJ basis set information -----
Your calculation utilizes the auxiliary basis: def2/J
   F. Weigend, Phys. Chem. Chem. Phys. 8, 1057 (2006).

================================================================================
                                        WARNINGS
                       Please study these warnings very carefully!
================================================================================

INFO   : Checking CIS options ...

WARNING: CIS/ROCIS methods need fully converged wavefunctions
  ===> : Setting SCFConvForced true
         You can overwrite this default with %scf ConvForced false 


INFO   : the flag for use of the SHARK integral package has been found!



***************************************
The coordinates will be read from file: /home/sk77/PycharmProjects/omg_database_publication/run_calculation/calculation_results/pareto_greedy/0/reaction_10005258/opt_n_1/conformer_10/geometry.xtbopt.xyz
***************************************


Your calculation utilizes the atom-pairwise dispersion correction
with the Becke-Johnson damping scheme (D3BJ)
Cite in your paper:
S.Grimme, S.Ehrlich, L.Goerigk, J Comput Chem, (2011), 32, 1456–1465 
S.Grimme, J.Antony, S.Ehrlich and H.Krieg, J.Chem.Phys., 132, (2010), 154104 
   

================================================================================

----- Orbital basis set information -----
Your calculation utilizes the basis: def2-SVP
   F. Weigend and R. Ahlrichs, Phys. Chem. Chem. Phys. 7, 3297 (2005).

----- AuxJ basis set information -----
Your calculation utilizes the auxiliary basis: def2/J
   F. Weigend, Phys. Chem. Chem. Phys. 8, 1057 (2006).

================================================================================
                                        WARNINGS
                       Please study these warnings very carefully!
================================================================================


INFO   : the flag for use of the SHARK integral package has been found!

================================================================================
                                       INPUT FILE
================================================================================
NAME = /home/sk77/PycharmProjects/omg_database_publication/run_calculation/calculation_results/pareto_greedy/0/reaction_10005258/opt_n_1/conformer_10/property.inp
|  1> ! revPBE def2-SVP def2/J CPCMC(Toluene) Hirshfeld CHELPG RIJONX D3 Energy
|  2> %pal
|  3> nprocs 1
|  4> end
|  5> %maxcore 3000
|  6> %elprop
|  7> Polar 1
|  8> Quadrupole True
|  9> end
| 10> %TDDFT
| 11> NRoots 15
| 12> Triplets True
| 13> end
| 14> * xyzfile 0 1 /home/sk77/PycharmProjects/omg_database_publication/run_calculation/calculation_results/pareto_greedy/0/reaction_10005258/opt_n_1/conformer_10/geometry.xtbopt.xyz
| 15> 
| 16> # for cosmo solvent -> Flory Huggins
| 17> $new_job
| 18> ! revPBE def2-SVP def2/J CPCMC Hirshfeld CHELPG RIJONX D3 Energy
| 19> %base "/home/sk77/PycharmProjects/omg_database_publication/run_calculation/calculation_results/pareto_greedy/0/reaction_10005258/opt_n_1/conformer_10/property_cosmo"
| 20> %pal
| 21> nprocs 1
| 22> end
| 23> %maxcore 3000
| 24> * xyzfile 0 1 /home/sk77/PycharmProjects/omg_database_publication/run_calculation/calculation_results/pareto_greedy/0/reaction_10005258/opt_n_1/conformer_10/geometry.xtbopt.xyz
| 25> 
| 26>                          ****END OF INPUT****
================================================================================


                 $$$$$$$$$$$$$$$$$$$$$$$$$$$$$$$$$$$$$$$$$$$$$$ 
                 $ THERE ARE  2 JOBS TO BE PROCESSED THIS RUN $
                 $$$$$$$$$$$$$$$$$$$$$$$$$$$$$$$$$$$$$$$$$$$$$$ 




                 $$$$$$$$$$$$$$$$  JOB NUMBER  1 $$$$$$$$$$$$$$


                       ****************************
                       * Single Point Calculation *
                       ****************************

---------------------------------
CARTESIAN COORDINATES (ANGSTROEM)
---------------------------------
  H      2.893972   -1.699299   -1.793161
  C      2.019850   -2.284885   -2.020601
  C      0.758370   -1.777114   -1.784241
  O      0.687959   -0.482325   -1.299784
  C     -0.156877   -0.143839   -0.312144
  O     -0.879971   -0.927582    0.261448
  C     -0.073254    1.301692    0.013154
  C      0.836100    2.138001   -0.625069
  H      1.497331    1.725760   -1.366104
  C      0.857182    3.493019   -0.301438
  C      1.785140    4.466673   -0.949973
  O      1.672561    5.662372   -0.749607
  C      2.851611    3.904931   -1.842652
  H      3.428957    3.156531   -1.307287
  H      2.390450    3.432537   -2.706385
  H      3.503252    4.706700   -2.177829
  C     -0.017128    3.978612    0.665260
  H      0.010133    5.034025    0.893771
  C     -0.912397    3.141488    1.335042
  N     -1.760526    3.726844    2.267668
  H     -1.904020    4.722072    2.149181
  C     -2.416519    3.221339    3.348791
  S     -3.535639    4.228525    4.089708
  N     -2.133179    1.994111    3.775987
  H     -1.344771    1.515443    3.362126
  C     -2.702503    1.356582    4.941238
  H     -3.471974    2.020095    5.339516
  H     -3.171012    0.419047    4.628125
  C     -1.632283    1.080527    5.992949
  H     -0.861392    0.430702    5.587188
  H     -1.175380    2.011495    6.318240
  H     -2.083463    0.594070    6.851470
  C     -0.946157    1.793921    0.982791
  H     -1.666449    1.109438    1.401271
  C     -0.389913   -2.510868   -2.075904
  H     -1.359863   -2.084259   -1.885659
  C     -0.218977   -3.778113   -2.595986
  O     -1.293970   -4.631181   -2.936655
  C     -2.531732   -4.280253   -2.691359
  F     -2.949506   -3.179789   -3.349500
  F     -3.344549   -5.266861   -3.070889
  F     -2.806930   -4.043036   -1.395066
  C      1.032314   -4.320695   -2.840804
  H      1.082068   -5.314116   -3.249126
  C      2.169799   -3.567874   -2.557088
  O      3.432273   -3.983115   -2.757041
  C      3.649870   -5.280924   -3.291025
  H      3.244100   -6.048598   -2.629595
  H      3.207528   -5.374065   -4.284663
  H      4.729494   -5.387740   -3.358300

----------------------------
CARTESIAN COORDINATES (A.U.)
----------------------------
  NO LB      ZA    FRAG     MASS         X           Y           Z
   0 H     1.0000    0     1.008    5.468815   -3.211209   -3.388582
   1 C     6.0000    0    12.011    3.816964   -4.317807   -3.818383
   2 C     6.0000    0    12.011    1.433111   -3.358259   -3.371727
   3 O     8.0000    0    15.999    1.300054   -0.911462   -2.456236
   4 C     6.0000    0    12.011   -0.296455   -0.271816   -0.589866
   5 O     8.0000    0    15.999   -1.662904   -1.752877    0.494065
   6 C     6.0000    0    12.011   -0.138430    2.459842    0.024857
   7 C     6.0000    0    12.011    1.580000    4.040236   -1.181209
   8 H     1.0000    0     1.008    2.829546    3.261213   -2.581562
   9 C     6.0000    0    12.011    1.619839    6.600850   -0.569635
  10 C     6.0000    0    12.011    3.373425    8.440789   -1.795189
  11 O     8.0000    0    15.999    3.160682   10.700333   -1.416552
  12 C     6.0000    0    12.011    5.388763    7.379249   -3.482108
  13 H     1.0000    0     1.008    6.479790    5.964979   -2.470414
  14 H     1.0000    0     1.008    4.517296    6.486554   -5.114326
  15 H     1.0000    0     1.008    6.620187    8.894373   -4.115501
  16 C     6.0000    0    12.011   -0.032368    7.518486    1.257160
  17 H     1.0000    0     1.008    0.019149    9.512928    1.688983
  18 C     6.0000    0    12.011   -1.724181    5.936551    2.522864
  19 N     7.0000    0    14.007   -3.326912    7.042714    4.285271
  20 H     1.0000    0     1.008   -3.598076    8.923423    4.061364
  21 C     6.0000    0    12.011   -4.566559    6.087449    6.328297
  22 S    16.0000    0    32.060   -6.681390    7.990753    7.728428
  23 N     7.0000    0    14.007   -4.031123    3.768324    7.135582
  24 H     1.0000    0     1.008   -2.541249    2.863771    6.353497
  25 C     6.0000    0    12.011   -5.106990    2.563568    9.337587
  26 H     1.0000    0     1.008   -6.561080    3.817426   10.090224
  27 H     1.0000    0     1.008   -5.992344    0.791883    8.745888
  28 C     6.0000    0    12.011   -3.084567    2.041900   11.325033
  29 H     1.0000    0     1.008   -1.627795    0.813909   10.558254
  30 H     1.0000    0     1.008   -2.221147    3.801175   11.939744
  31 H     1.0000    0     1.008   -3.937174    1.122630   12.947402
  32 C     6.0000    0    12.011   -1.787977    3.390020    1.857205
  33 H     1.0000    0     1.008   -3.149132    2.096533    2.648019
  34 C     6.0000    0    12.011   -0.736828   -4.744853   -3.922890
  35 H     1.0000    0     1.008   -2.569769   -3.938678   -3.563379
  36 C     6.0000    0    12.011   -0.413807   -7.139598   -4.905702
  37 O     8.0000    0    15.999   -2.445248   -8.751663   -5.549474
  38 C     6.0000    0    12.011   -4.784281   -8.088506   -5.085931
  39 F     9.0000    0    18.998   -5.573759   -6.008930   -6.329637
  40 F     9.0000    0    18.998   -6.320281   -9.952925   -5.803140
  41 F     9.0000    0    18.998   -5.304329   -7.640230   -2.636293
  42 C     6.0000    0    12.011    1.950791   -8.164930   -5.368342
  43 H     1.0000    0     1.008    2.044813  -10.042224   -6.139958
  44 C     6.0000    0    12.011    4.100326   -6.742305   -4.832195
  45 O     8.0000    0    15.999    6.486055   -7.526996   -5.210053
  46 C     6.0000    0    12.011    6.897255   -9.979500   -6.219135
  47 H     1.0000    0     1.008    6.130461  -11.430194   -4.969214
  48 H     1.0000    0     1.008    6.061349  -10.155512   -8.096839
  49 H     1.0000    0     1.008    8.937448  -10.181353   -6.346267

--------------------------------
INTERNAL COORDINATES (ANGSTROEM)
--------------------------------
 H      0   0   0     0.000000000000     0.00000000     0.00000000
 C      1   0   0     1.076442985429     0.00000000     0.00000000
 C      2   1   0     1.380228346550   120.38895116     0.00000000
 O      3   2   1     1.384245443264   116.77815652     2.45049162
 C      4   3   2     1.343038967520   121.67542508   222.85184791
 O      5   4   3     1.210836692805   124.11700656     2.67205840
 C      5   4   3     1.484038692884   111.79193769   181.30900613
 C      7   5   4     1.390563053729   121.47028656   357.34351214
 H      8   7   5     1.075314934048   119.19931403   359.59772864
 C      8   7   5     1.393289817800   119.22129474   178.79036877
 C     10   8   7     1.493219983602   122.86483456   180.90966454
 O     11  10   8     1.217586506475   120.75696556   171.76133418
 C     11  10   8     1.499930568436   117.13837881   351.48233146
 H     13  11  10     1.086299754520   110.03528276   305.81730722
 H     13  11  10     1.087133546542   109.51013537    65.02059599
 H     13  11  10     1.086192115126   109.49744457   184.81778153
 C     10   8   7     1.390943182478   119.43540253     0.89317465
 H     17  10   8     1.080211672351   118.18065423   180.55826420
 C     17  10   8     1.396742860521   121.79840953     0.63673558
 N     19  17  10     1.389875886270   117.41854610   181.06790491
 H     20  19  17     1.012476653487   114.95709629    21.51500100
 C     20  19  17     1.361869276183   132.08963700   203.68952943
 S     22  20  19     1.678037880920   116.67773403   188.91376752
 N     22  20  19     1.329988036625   119.66151748    10.13309480
 H     24  22  20     1.010935824792   118.13536264     8.30054449
 C     24  22  20     1.445124064136   125.60125810   176.94347822
 H     26  24  22     1.091311888575   107.68773812     5.65620163
 H     26  24  22     1.093852573572   108.42370981   123.31569882
 C     26  24  22     1.525671216580   111.05775609   244.33377324
 H     29  26  24     1.086824210444   110.38839679   300.34139028
 H     29  26  24     1.086864985348   110.25622377    60.84169052
 H     29  26  24     1.085016826030   109.56482017   180.54050291
 C     19  17  10     1.393253740423   118.29292391   357.95959534
 H     33  19  17     1.078176540443   122.14686575   185.06636546
 C      3   2   1     1.393562158337   121.57087242   179.65708649
 H     35   3   2     1.076565294481   119.78558429   180.38535021
 C     35   3   2     1.380439031294   117.39842670     0.85262638
 O     37  35   3     1.413997825891   123.39869878   179.98228909
 C     38  37  35     1.309724071432   120.77764367   355.66827282
 F     39  38  37     1.348594063006   114.83488107    62.98769424
 F     39  38  37     1.333457720120   108.93603403   181.69463338
 F     39  38  37     1.346246921395   114.88122509   300.72173562
 C     37  35   3     1.385662635419   122.53698240   359.40111092
 H     43  37  35     1.075215377328   118.07736048   180.12308565
 C     43  37  35     1.393236000421   119.32106214   359.91454626
 O     45  43  37     1.343966378551   124.72822767   180.31979379
 C     46  45  43     1.420139412607   118.83089144   359.77760203
 H     47  46  45     1.091541530496   110.97175890   298.84556609
 H     47  46  45     1.091630946448   110.98603050    61.39829073
 H     47  46  45     1.086978803268   105.38249970   180.13046965

---------------------------
INTERNAL COORDINATES (A.U.)
---------------------------
 H      0   0   0     0.000000000000     0.00000000     0.00000000
 C      1   0   0     2.034182441242     0.00000000     0.00000000
 C      2   1   0     2.608253577255   120.38895116     0.00000000
 O      3   2   1     2.615844789897   116.77815652     2.45049162
 C      4   3   2     2.537975835797   121.67542508   222.85184791
 O      5   4   3     2.288149742305   124.11700656     2.67205840
 C      5   4   3     2.804426701693   111.79193769   181.30900613
 C      7   5   4     2.627783343497   121.47028656   357.34351214
 H      8   7   5     2.032050733066   119.19931403   359.59772864
 C      8   7   5     2.632936180824   119.22129474   178.79036877
 C     10   8   7     2.821776826707   122.86483456   180.90966454
 O     11  10   8     2.300905041596   120.75696556   171.76133418
 C     11  10   8     2.834457994241   117.13837881   351.48233146
 H     13  11  10     2.052809035388   110.03528276   305.81730722
 H     13  11  10     2.054384673964   109.51013537    65.02059599
 H     13  11  10     2.052605626412   109.49744457   184.81778153
 C     10   8   7     2.628501682728   119.43540253     0.89317465
 H     17  10   8     2.041304227409   118.18065423   180.55826420
 C     17  10   8     2.639461485895   121.79840953     0.63673558
 N     19  17  10     2.626484785191   117.41854610   181.06790491
 H     20  19  17     1.913303592079   114.95709629    21.51500100
 C     20  19  17     2.573559962188   132.08963700   203.68952943
 S     22  20  19     3.171032037285   116.67773403   188.91376752
 N     22  20  19     2.513313150614   119.66151748    10.13309480
 H     24  22  20     1.910391847827   118.13536264     8.30054449
 C     24  22  20     2.730888710756   125.60125810   176.94347822
 H     26  24  22     2.062280596099   107.68773812     5.65620163
 H     26  24  22     2.067081794936   108.42370981   123.31569882
 C     26  24  22     2.883100769743   111.05775609   244.33377324
 H     29  26  24     2.053800113455   110.38839679   300.34139028
 H     29  26  24     2.053877166856   110.25622377    60.84169052
 H     29  26  24     2.050384651894   109.56482017   180.54050291
 C     19  17  10     2.632868004460   118.29292391   357.95959534
 H     33  19  17     2.037458385456   122.14686575   185.06636546
 C      3   2   1     2.633450829852   121.57087242   179.65708649
 H     35   3   2     2.034413571853   119.78558429   180.38535021
 C     35   3   2     2.608651713722   117.39842670     0.85262638
 O     37  35   3     2.672068644894   123.39869878   179.98228909
 C     38  37  35     2.475019806010   120.77764367   355.66827282
 F     39  38  37     2.548473444914   114.83488107    62.98769424
 F     39  38  37     2.519869902190   108.93603403   181.69463338
 F     39  38  37     2.544037990072   114.88122509   300.72173562
 C     37  35   3     2.618522894949   122.53698240   359.40111092
 H     43  37  35     2.031862598130   118.07736048   180.12308565
 C     43  37  35     2.632834480715   119.32106214   359.91454626
 O     45  43  37     2.539728388659   124.72822767   180.31979379
 C     46  45  43     2.683674561814   118.83089144   359.77760203
 H     47  46  45     2.062714556440   110.97175890   298.84556609
 H     47  46  45     2.062883528100   110.98603050    61.39829073
 H     47  46  45     2.054092251553   105.38249970   180.13046965

---------------------
BASIS SET INFORMATION
---------------------
There are 6 groups of distinct atoms

 Group   1 Type H   : 4s1p contracted to 2s1p pattern {31/1}
 Group   2 Type C   : 7s4p1d contracted to 3s2p1d pattern {511/31/1}
 Group   3 Type O   : 7s4p1d contracted to 3s2p1d pattern {511/31/1}
 Group   4 Type N   : 7s4p1d contracted to 3s2p1d pattern {511/31/1}
 Group   5 Type S   : 10s7p1d contracted to 4s3p1d pattern {5311/511/1}
 Group   6 Type F   : 7s4p1d contracted to 3s2p1d pattern {511/31/1}

Atom   0H    basis set group =>   1
Atom   1C    basis set group =>   2
Atom   2C    basis set group =>   2
Atom   3O    basis set group =>   3
Atom   4C    basis set group =>   2
Atom   5O    basis set group =>   3
Atom   6C    basis set group =>   2
Atom   7C    basis set group =>   2
Atom   8H    basis set group =>   1
Atom   9C    basis set group =>   2
Atom  10C    basis set group =>   2
Atom  11O    basis set group =>   3
Atom  12C    basis set group =>   2
Atom  13H    basis set group =>   1
Atom  14H    basis set group =>   1
Atom  15H    basis set group =>   1
Atom  16C    basis set group =>   2
Atom  17H    basis set group =>   1
Atom  18C    basis set group =>   2
Atom  19N    basis set group =>   4
Atom  20H    basis set group =>   1
Atom  21C    basis set group =>   2
Atom  22S    basis set group =>   5
Atom  23N    basis set group =>   4
Atom  24H    basis set group =>   1
Atom  25C    basis set group =>   2
Atom  26H    basis set group =>   1
Atom  27H    basis set group =>   1
Atom  28C    basis set group =>   2
Atom  29H    basis set group =>   1
Atom  30H    basis set group =>   1
Atom  31H    basis set group =>   1
Atom  32C    basis set group =>   2
Atom  33H    basis set group =>   1
Atom  34C    basis set group =>   2
Atom  35H    basis set group =>   1
Atom  36C    basis set group =>   2
Atom  37O    basis set group =>   3
Atom  38C    basis set group =>   2
Atom  39F    basis set group =>   6
Atom  40F    basis set group =>   6
Atom  41F    basis set group =>   6
Atom  42C    basis set group =>   2
Atom  43H    basis set group =>   1
Atom  44C    basis set group =>   2
Atom  45O    basis set group =>   3
Atom  46C    basis set group =>   2
Atom  47H    basis set group =>   1
Atom  48H    basis set group =>   1
Atom  49H    basis set group =>   1
---------------------------------
AUXILIARY/J BASIS SET INFORMATION
---------------------------------
There are 6 groups of distinct atoms

 Group   1 Type H   : 5s2p1d contracted to 3s1p1d pattern {311/2/1}
 Group   2 Type C   : 12s5p4d2f1g contracted to 6s4p3d1f1g pattern {711111/2111/211/2/1}
 Group   3 Type O   : 12s5p4d2f1g contracted to 6s4p3d1f1g pattern {711111/2111/211/2/1}
 Group   4 Type N   : 12s5p4d2f1g contracted to 6s4p3d1f1g pattern {711111/2111/211/2/1}
 Group   5 Type S   : 14s5p5d2f1g contracted to 8s4p3d1f1g pattern {71111111/2111/311/2/1}
 Group   6 Type F   : 12s5p4d2f1g contracted to 6s4p3d1f1g pattern {711111/2111/211/2/1}

Atom   0H    basis set group =>   1
Atom   1C    basis set group =>   2
Atom   2C    basis set group =>   2
Atom   3O    basis set group =>   3
Atom   4C    basis set group =>   2
Atom   5O    basis set group =>   3
Atom   6C    basis set group =>   2
Atom   7C    basis set group =>   2
Atom   8H    basis set group =>   1
Atom   9C    basis set group =>   2
Atom  10C    basis set group =>   2
Atom  11O    basis set group =>   3
Atom  12C    basis set group =>   2
Atom  13H    basis set group =>   1
Atom  14H    basis set group =>   1
Atom  15H    basis set group =>   1
Atom  16C    basis set group =>   2
Atom  17H    basis set group =>   1
Atom  18C    basis set group =>   2
Atom  19N    basis set group =>   4
Atom  20H    basis set group =>   1
Atom  21C    basis set group =>   2
Atom  22S    basis set group =>   5
Atom  23N    basis set group =>   4
Atom  24H    basis set group =>   1
Atom  25C    basis set group =>   2
Atom  26H    basis set group =>   1
Atom  27H    basis set group =>   1
Atom  28C    basis set group =>   2
Atom  29H    basis set group =>   1
Atom  30H    basis set group =>   1
Atom  31H    basis set group =>   1
Atom  32C    basis set group =>   2
Atom  33H    basis set group =>   1
Atom  34C    basis set group =>   2
Atom  35H    basis set group =>   1
Atom  36C    basis set group =>   2
Atom  37O    basis set group =>   3
Atom  38C    basis set group =>   2
Atom  39F    basis set group =>   6
Atom  40F    basis set group =>   6
Atom  41F    basis set group =>   6
Atom  42C    basis set group =>   2
Atom  43H    basis set group =>   1
Atom  44C    basis set group =>   2
Atom  45O    basis set group =>   3
Atom  46C    basis set group =>   2
Atom  47H    basis set group =>   1
Atom  48H    basis set group =>   1
Atom  49H    basis set group =>   1
------------------------------------------------------------------------------
                           ORCA GTO INTEGRAL CALCULATION
                           -- RI-GTO INTEGRALS CHOSEN --
------------------------------------------------------------------------------
------------------------------------------------------------------------------
                   ___                                                        
                  /   \      - P O W E R E D   B Y -                         
                 /     \                                                     
                 |  |  |   _    _      __       _____    __    __             
                 |  |  |  | |  | |    /  \     |  _  \  |  |  /  |          
                  \  \/   | |  | |   /    \    | | | |  |  | /  /          
                 / \  \   | |__| |  /  /\  \   | |_| |  |  |/  /          
                |  |  |   |  __  | /  /__\  \  |    /   |      \           
                |  |  |   | |  | | |   __   |  |    \   |  |\   \          
                \     /   | |  | | |  |  |  |  | |\  \  |  | \   \       
                 \___/    |_|  |_| |__|  |__|  |_| \__\ |__|  \__/        
                                                                              
                      - O R C A' S   B I G   F R I E N D -                    
                                      &                                       
                       - I N T E G R A L  F E E D E R -                       
                                                                              
 v1 FN, 2020, v2 2021                                                         
------------------------------------------------------------------------------


Reading SHARK input file /home/sk77/PycharmProjects/omg_database_publication/run_calculation/calculation_results/pareto_greedy/0/reaction_10005258/opt_n_1/conformer_10/property.SHARKINP.tmp ... ok
----------------------
SHARK INTEGRAL PACKAGE
----------------------

Number of atoms                             ...     50
Number of basis functions                   ...    533
Number of shells                            ...    245
Maximum angular momentum                    ...      2
Integral batch strategy                     ... SHARK/LIBINT Hybrid
RI-J (if used) integral strategy            ... SPLIT-RIJ (Revised 2003 algorithm where possible)
Printlevel                                  ...      1
Contraction scheme used                     ... SEGMENTED contraction
Coulomb Range Separation                    ... NOT USED
Exchange Range Separation                   ... NOT USED
Finite Nucleus Model                        ... NOT USED
Auxiliary Coulomb fitting basis             ... AVAILABLE
   # of basis functions in Aux-J            ...   1730
   # of shells in Aux-J                     ...    562
   Maximum angular momentum in Aux-J        ...      4
Auxiliary J/K fitting basis                 ... NOT available
Auxiliary Correlation fitting basis         ... NOT available
Auxiliary 'external' fitting basis          ... NOT available
Integral threshold                          ...     1.000000e-10
Primitive cut-off                           ...     1.000000e-11
Primitive pair pre-selection threshold      ...     1.000000e-11

Calculating pre-screening integrals         ... done (  0.1 sec) Dimension = 245
Organizing shell pair data                  ... done (  1.3 sec)
Shell pair information
Total number of shell pairs                 ...     30135
Shell pairs after pre-screening             ...     15340
Total number of primitive shell pairs       ...    112571
Primitive shell pairs kept                  ...     35310
          la=0 lb=0:   4618 shell pairs
          la=1 lb=0:   5717 shell pairs
          la=1 lb=1:   1828 shell pairs
          la=2 lb=0:   1834 shell pairs
          la=2 lb=1:   1158 shell pairs
          la=2 lb=2:    185 shell pairs

Calculating one electron integrals          ... done (  0.2 sec)
Calculating RI/J V-Matrix + Cholesky decomp.... done (  1.6 sec)
Calculating Nuclear repulsion               ... done (  0.0 sec) ENN=   3130.623682044673 Eh

SHARK setup successfully completed in   5.4 seconds

Maximum memory used throughout the entire GTOINT-calculation: 98.2 MB
-------------------------------------------------------------------------------
                                 ORCA SCF
-------------------------------------------------------------------------------

------------
SCF SETTINGS
------------
Hamiltonian:
 Density Functional     Method          .... DFT(GTOs)
 Exchange Functional    Exchange        .... PBE
   PBE kappa parameter   XKappa         ....  1.245000
   PBE mue parameter    XMuePBE         ....  0.219520
 Correlation Functional Correlation     .... PBE
   PBE beta parameter  CBetaPBE         ....  0.066725
 LDA part of GGA corr.  LDAOpt          .... PW91-LDA
 Gradients option       PostSCFGGA      .... off
   Density functional embedding theory  .... OFF
   NL short-range parameter             ....  3.700000
 RI-approximation to the Coulomb term is turned on
   Number of AuxJ basis functions       .... 1730


General Settings:
 Integral files         IntName         .... /home/sk77/PycharmProjects/omg_database_publication/run_calculation/calculation_results/pareto_greedy/0/reaction_10005258/opt_n_1/conformer_10/property
 Hartree-Fock type      HFTyp           .... RHF
 Total Charge           Charge          ....    0
 Multiplicity           Mult            ....    1
 Number of Electrons    NEL             ....  236
 Basis Dimension        Dim             ....  533
 Nuclear Repulsion      ENuc            ....   3130.6236820447 Eh

Convergence Acceleration:
 DIIS                   CNVDIIS         .... on
   Start iteration      DIISMaxIt       ....    12
   Startup error        DIISStart       ....  0.200000
   # of expansion vecs  DIISMaxEq       ....     5
   Bias factor          DIISBfac        ....   1.050
   Max. coefficient     DIISMaxC        ....  10.000
 Trust-Rad. Augm. Hess. CNVTRAH         .... auto
   Auto Start mean grad. ratio tolernc. ....  1.125000
   Auto Start start iteration           ....    20
   Auto Start num. interpolation iter.  ....    10
   Max. Number of Micro iterations      ....    16
   Max. Number of Macro iterations      .... Maxiter - #DIIS iter
   Number of Davidson start vectors     ....     2
   Converg. threshold I  (grad. norm)   ....   5.000e-05
   Converg. threshold II (energy diff.) ....   1.000e-06
   Grad. Scal. Fac. for Micro threshold ....   0.100
   Minimum threshold for Micro iter.    ....   0.010
   NR start threshold (gradient norm)   ....   0.001
   Initial trust radius                 ....   0.400
   Minimum AH scaling param. (alpha)    ....   1.000
   Maximum AH scaling param. (alpha)    .... 1000.000
   Orbital update algorithm             .... Taylor
   White noise on init. David. guess    .... on
   Maximum white noise                  ....   0.010
   Quad. conv. algorithm                .... NR
   COSX micro iterations for RIJONX calc.... off
 SOSCF                  CNVSOSCF        .... on
   Start iteration      SOSCFMaxIt      ....   150
   Startup grad/error   SOSCFStart      ....  0.003300
 Level Shifting         CNVShift        .... on
   Level shift para.    LevelShift      ....    0.2500
   Turn off err/grad.   ShiftErr        ....    0.0010
 Zerner damping         CNVZerner       .... off
 Static damping         CNVDamp         .... on
   Fraction old density DampFac         ....    0.7000
   Max. Damping (<1)    DampMax         ....    0.9800
   Min. Damping (>=0)   DampMin         ....    0.0000
   Turn off err/grad.   DampErr         ....    0.1000
 Fernandez-Rico         CNVRico         .... off

SCF Procedure:
 Maximum # iterations   MaxIter         ....   125
 SCF integral mode      SCFMode         .... Direct
   Integral package                     .... SHARK and LIBINT hybrid scheme
 Reset frequency        DirectResetFreq ....    20
 Integral Threshold     Thresh          ....  1.000e-10 Eh
 Primitive CutOff       TCut            ....  1.000e-11 Eh

Convergence Tolerance:
 Convergence Check Mode ConvCheckMode   .... Total+1el-Energy
 Convergence forced     ConvForced      .... 1
 Energy Change          TolE            ....  1.000e-06 Eh
 1-El. energy change                    ....  1.000e-03 Eh
 Orbital Gradient       TolG            ....  5.000e-05
 Orbital Rotation angle TolX            ....  5.000e-05
 DIIS Error             TolErr          ....  1.000e-06


Diagonalization of the overlap matrix:
Smallest eigenvalue                        ... 2.173e-04
Time for diagonalization                   ...    0.055 sec
Threshold for overlap eigenvalues          ... 1.000e-08
Number of eigenvalues below threshold      ... 0
Time for construction of square roots      ...    0.072 sec
Total time needed                          ...    0.129 sec

Time for model grid setup =    2.488 sec

------------------------------
INITIAL GUESS: MODEL POTENTIAL
------------------------------
Loading Hartree-Fock densities                     ... done
Calculating cut-offs                               ... done
Initializing the effective Hamiltonian             ... done
Setting up the integral package (SHARK)            ... done
Starting the Coulomb interaction                   ... done (   2.9 sec)
Reading the grid                                   ... done
Mapping shells                                     ... done
Starting the XC term evaluation                    ... done (   1.1 sec)
  promolecular density results
     # of electrons  =    235.987330664
     EX              =   -218.176018567
     EC              =     -8.115079510
     EX+EC           =   -226.291098077
Transforming the Hamiltonian                       ... done (   0.0 sec)
Diagonalizing the Hamiltonian                      ... done (   0.1 sec)
Back transforming the eigenvectors                 ... done (   0.0 sec)
Now organizing SCF variables                       ... done
                      ------------------
                      INITIAL GUESS DONE (   6.7 sec)
                      ------------------
-------------------
DFT GRID GENERATION
-------------------

General Integration Accuracy     IntAcc      ... 4.388
Radial Grid Type                 RadialGrid  ... OptM3 with GC (2021)
Angular Grid (max. ang.)         AngularGrid ... 4 (Lebedev-302)
Angular grid pruning method      GridPruning ... 4 (adaptive)
Weight generation scheme         WeightScheme... Becke
Basis function cutoff            BFCut       ... 1.0000e-10
Integration weight cutoff        WCut        ... 1.0000e-14
Angular grids for H and He will be reduced by one unit
Partially contracted basis set               ... off
Rotationally invariant grid construction     ... off

Total number of grid points                  ...   247962
Total number of batches                      ...     3901
Average number of points per batch           ...       63
Average number of grid points per atom       ...     4959
Time for grid setup =    6.548 sec


--------------------
CPCM SOLVATION MODEL
--------------------
CPCM parameters:
  Epsilon                                         ...       2.4000
  Refrac                                          ...       1.4970
  Rsolv                                           ...       1.3000
  Surface type                                    ... GAUSSIAN VDW
  Epsilon function type                           ...        COSMO
Radii:
 Radius for H  used is    2.4944 Bohr (=   1.3200 Ang.)
 Radius for C  used is    3.8550 Bohr (=   2.0400 Ang.)
 Radius for O  used is    3.4469 Bohr (=   1.8240 Ang.)
 Radius for N  used is    3.5149 Bohr (=   1.8600 Ang.)
 Radius for S  used is    4.0818 Bohr (=   2.1600 Ang.)
 Radius for F  used is    3.3335 Bohr (=   1.7640 Ang.)
Calculating surface                               ...        done! (  0.0s)
GEPOL surface points                              ...         2674
GEPOL Volume                                      ...    3276.4743
GEPOL Surface-area                                ...    1697.7784
Calculating surface distance matrix               ...        done! (  0.1s)
Performing Cholesky decomposition & store         ...        done! (  3.6s)
Overall time for CPCM initialization              ...                 3.7s
--------------
SCF ITERATIONS
--------------
ITER       Energy         Delta-E        Max-DP      RMS-DP      [F,P]     Damp
               ***  Starting incremental Fock matrix formation  ***
  0  -1954.5780201636   0.000000000000 0.12529463  0.00152567  0.2351702 0.7000
  1  -1954.8660821297  -0.288061966085 0.07684676  0.00094866  0.0707615 0.7000
                               ***Turning on DIIS***
  2  -1954.9580938228  -0.092011693146 0.09338136  0.00138190  0.0252064 0.0000
  3  -1955.1233159560  -0.165222133179 0.04472015  0.00064037  0.0444236 0.0000
  4  -1955.1545088456  -0.031192889655 0.01672642  0.00024304  0.0270976 0.0000
  5  -1955.1586257500  -0.004116904385 0.00562388  0.00007957  0.0057240 0.0000
                      *** Initiating the SOSCF procedure ***
                           *** Shutting down DIIS ***
                      *** Re-Reading the Fockian *** 
                      *** Removing any level shift *** 
ITER      Energy       Delta-E        Grad      Rot      Max-DP    RMS-DP
  6  -1955.15882885  -0.0002030964  0.000418  0.000418  0.001571  0.000028
               *** Restarting incremental Fock matrix formation ***
  7  -1955.15885673  -0.0000278807  0.000204  0.001150  0.000992  0.000019
  8  -1955.15885172   0.0000050031  0.000375  0.000418  0.000878  0.000011
  9  -1955.15886066  -0.0000089331  0.000096  0.000320  0.000732  0.000007
 10  -1955.15885945   0.0000012075  0.000176  0.000226  0.000546  0.000005
 11  -1955.15886101  -0.0000015649  0.000021  0.000113  0.000103  0.000002
                 **** Energy Check signals convergence ****
              ***Rediagonalizing the Fockian in SOSCF/NRSCF***

               *****************************************************
               *                     SUCCESS                       *
               *           SCF CONVERGED AFTER  12 CYCLES          *
               *****************************************************


----------------
TOTAL SCF ENERGY
----------------

Total Energy       :        -1955.15886092 Eh          -53202.57737 eV

Components:
Nuclear Repulsion  :         3130.62368204 Eh           85188.60129 eV
Electronic Energy  :        -5085.78254297 Eh         -138391.17867 eV
One Electron Energy:        -8907.60593578 Eh         -242388.28029 eV
Two Electron Energy:         3821.82339281 Eh          103997.10163 eV
CPCM Dielectric    :           -0.01339066 Eh              -0.36438 eV

Virial components:
Potential Energy   :        -3896.45026297 Eh         -106027.80200 eV
Kinetic Energy     :         1941.29140204 Eh           52825.22463 eV
Virial Ratio       :            2.00714342


DFT components:
N(Alpha)           :      117.999949470723 electrons
N(Beta)            :      117.999949470723 electrons
N(Total)           :      235.999898941446 electrons
E(X)               :     -220.906374929042 Eh       
E(C)               :       -8.133066636323 Eh       
E(XC)              :     -229.039441565365 Eh       
DFET-embed. en.    :        0.000000000000 Eh       
CPCM Solvation Model Properties:
Surface-charge          :           -0.02489836
Charge-correction       :            0.00004051 Eh               0.00110 eV
Free-energy (cav+disp)  :  This term is not implemented in the current solvation scheme

---------------
SCF CONVERGENCE
---------------

  Last Energy change         ...    9.1537e-08  Tolerance :   1.0000e-06
  Last MAX-Density change    ...    7.7610e-05  Tolerance :   1.0000e-05
  Last RMS-Density change    ...    1.3523e-06  Tolerance :   1.0000e-06
  Last Orbital Gradient      ...    4.7524e-05  Tolerance :   5.0000e-05
  Last Orbital Rotation      ...    7.0924e-05  Tolerance :   5.0000e-05

             **** THE GBW FILE WAS UPDATED (/home/sk77/PycharmProjects/omg_database_publication/run_calculation/calculation_results/pareto_greedy/0/reaction_10005258/opt_n_1/conformer_10/property.gbw) ****
             **** DENSITY /home/sk77/PycharmProjects/omg_database_publication/run_calculation/calculation_results/pareto_greedy/0/reaction_10005258/opt_n_1/conformer_10/property.scfp WAS UPDATED ****
             **** ENERGY FILE WAS UPDATED (/home/sk77/PycharmProjects/omg_database_publication/run_calculation/calculation_results/pareto_greedy/0/reaction_10005258/opt_n_1/conformer_10/property.en.tmp) ****
             **** THE GBW FILE WAS UPDATED (/home/sk77/PycharmProjects/omg_database_publication/run_calculation/calculation_results/pareto_greedy/0/reaction_10005258/opt_n_1/conformer_10/property.gbw) ****
             **** DENSITY /home/sk77/PycharmProjects/omg_database_publication/run_calculation/calculation_results/pareto_greedy/0/reaction_10005258/opt_n_1/conformer_10/property.scfp WAS UPDATED ****
----------------
ORBITAL ENERGIES
----------------

  NO   OCC          E(Eh)            E(eV) 
   0   2.0000     -87.982279     -2394.1195 
   1   2.0000     -24.306197      -661.4052 
   2   2.0000     -24.305118      -661.3759 
   3   2.0000     -24.304725      -661.3652 
   4   2.0000     -18.851236      -512.9682 
   5   2.0000     -18.845122      -512.8018 
   6   2.0000     -18.819580      -512.1068 
   7   2.0000     -18.772892      -510.8363 
   8   2.0000     -18.766172      -510.6535 
   9   2.0000     -14.058839      -382.5605 
  10   2.0000     -14.050048      -382.3212 
  11   2.0000     -10.189335      -277.2659 
  12   2.0000     -10.046133      -273.3692 
  13   2.0000     -10.012590      -272.4564 
  14   2.0000      -9.998200      -272.0648 
  15   2.0000      -9.997650      -272.0499 
  16   2.0000      -9.991102      -271.8717 
  17   2.0000      -9.987374      -271.7703 
  18   2.0000      -9.976642      -271.4782 
  19   2.0000      -9.969030      -271.2711 
  20   2.0000      -9.942596      -270.5518 
  21   2.0000      -9.941681      -270.5269 
  22   2.0000      -9.936314      -270.3809 
  23   2.0000      -9.933534      -270.3052 
  24   2.0000      -9.932419      -270.2749 
  25   2.0000      -9.932058      -270.2650 
  26   2.0000      -9.922870      -270.0150 
  27   2.0000      -9.922310      -269.9998 
  28   2.0000      -9.918818      -269.9048 
  29   2.0000      -9.911971      -269.7184 
  30   2.0000      -9.903751      -269.4948 
  31   2.0000      -7.616191      -207.2471 
  32   2.0000      -5.639480      -153.4580 
  33   2.0000      -5.632739      -153.2746 
  34   2.0000      -5.628917      -153.1706 
  35   2.0000      -1.214020       -33.0352 
  36   2.0000      -1.111192       -30.2371 
  37   2.0000      -1.106777       -30.1169 
  38   2.0000      -1.039067       -28.2745 
  39   2.0000      -1.028958       -27.9994 
  40   2.0000      -0.992644       -27.0112 
  41   2.0000      -0.951476       -25.8910 
  42   2.0000      -0.945073       -25.7167 
  43   2.0000      -0.919962       -25.0334 
  44   2.0000      -0.856048       -23.2943 
  45   2.0000      -0.806837       -21.9551 
  46   2.0000      -0.800253       -21.7760 
  47   2.0000      -0.734048       -19.9745 
  48   2.0000      -0.723006       -19.6740 
  49   2.0000      -0.718704       -19.5569 
  50   2.0000      -0.703876       -19.1534 
  51   2.0000      -0.687005       -18.6944 
  52   2.0000      -0.674260       -18.3475 
  53   2.0000      -0.653730       -17.7889 
  54   2.0000      -0.651769       -17.7355 
  55   2.0000      -0.644560       -17.5394 
  56   2.0000      -0.622025       -16.9262 
  57   2.0000      -0.597710       -16.2645 
  58   2.0000      -0.589745       -16.0478 
  59   2.0000      -0.581586       -15.8258 
  60   2.0000      -0.574987       -15.6462 
  61   2.0000      -0.551502       -15.0071 
  62   2.0000      -0.543880       -14.7997 
  63   2.0000      -0.542762       -14.7693 
  64   2.0000      -0.531649       -14.4669 
  65   2.0000      -0.527911       -14.3652 
  66   2.0000      -0.514955       -14.0126 
  67   2.0000      -0.496809       -13.5189 
  68   2.0000      -0.472946       -12.8695 
  69   2.0000      -0.471810       -12.8386 
  70   2.0000      -0.468675       -12.7533 
  71   2.0000      -0.461805       -12.5663 
  72   2.0000      -0.458925       -12.4880 
  73   2.0000      -0.449622       -12.2348 
  74   2.0000      -0.442846       -12.0505 
  75   2.0000      -0.433550       -11.7975 
  76   2.0000      -0.430853       -11.7241 
  77   2.0000      -0.422653       -11.5010 
  78   2.0000      -0.418912       -11.3992 
  79   2.0000      -0.416928       -11.3452 
  80   2.0000      -0.413028       -11.2391 
  81   2.0000      -0.412416       -11.2224 
  82   2.0000      -0.409099       -11.1322 
  83   2.0000      -0.408806       -11.1242 
  84   2.0000      -0.401995       -10.9388 
  85   2.0000      -0.392283       -10.6746 
  86   2.0000      -0.390335       -10.6216 
  87   2.0000      -0.385208       -10.4820 
  88   2.0000      -0.376102       -10.2343 
  89   2.0000      -0.373535       -10.1644 
  90   2.0000      -0.373413       -10.1611 
  91   2.0000      -0.366665        -9.9775 
  92   2.0000      -0.362705        -9.8697 
  93   2.0000      -0.359434        -9.7807 
  94   2.0000      -0.355951        -9.6859 
  95   2.0000      -0.350726        -9.5437 
  96   2.0000      -0.346567        -9.4306 
  97   2.0000      -0.342530        -9.3207 
  98   2.0000      -0.342307        -9.3146 
  99   2.0000      -0.338768        -9.2184 
 100   2.0000      -0.337747        -9.1906 
 101   2.0000      -0.335224        -9.1219 
 102   2.0000      -0.330810        -9.0018 
 103   2.0000      -0.324959        -8.8426 
 104   2.0000      -0.318469        -8.6660 
 105   2.0000      -0.312397        -8.5007 
 106   2.0000      -0.308062        -8.3828 
 107   2.0000      -0.303700        -8.2641 
 108   2.0000      -0.279512        -7.6059 
 109   2.0000      -0.277672        -7.5558 
 110   2.0000      -0.255181        -6.9438 
 111   2.0000      -0.249251        -6.7825 
 112   2.0000      -0.230326        -6.2675 
 113   2.0000      -0.215890        -5.8747 
 114   2.0000      -0.213928        -5.8213 
 115   2.0000      -0.211316        -5.7502 
 116   2.0000      -0.185095        -5.0367 
 117   2.0000      -0.173517        -4.7216 
 118   0.0000      -0.106338        -2.8936 
 119   0.0000      -0.088194        -2.3999 
 120   0.0000      -0.050514        -1.3746 
 121   0.0000      -0.043158        -1.1744 
 122   0.0000      -0.035581        -0.9682 
 123   0.0000       0.003768         0.1025 
 124   0.0000       0.016549         0.4503 
 125   0.0000       0.035074         0.9544 
 126   0.0000       0.038578         1.0498 
 127   0.0000       0.040653         1.1062 
 128   0.0000       0.049529         1.3477 
 129   0.0000       0.050959         1.3867 
 130   0.0000       0.072023         1.9598 
 131   0.0000       0.074782         2.0349 
 132   0.0000       0.081080         2.2063 
 133   0.0000       0.083507         2.2723 
 134   0.0000       0.092367         2.5134 
 135   0.0000       0.097805         2.6614 
 136   0.0000       0.099340         2.7032 
 137   0.0000       0.101446         2.7605 
 138   0.0000       0.105472         2.8701 
 139   0.0000       0.108232         2.9451 
 140   0.0000       0.108913         2.9637 
 141   0.0000       0.111128         3.0239 
 142   0.0000       0.114441         3.1141 
 143   0.0000       0.115694         3.1482 
 144   0.0000       0.118759         3.2316 
 145   0.0000       0.122155         3.3240 
 146   0.0000       0.124027         3.3749 
 147   0.0000       0.131844         3.5877 
 148   0.0000       0.136742         3.7209 
 149   0.0000       0.139096         3.7850 
 150   0.0000       0.153021         4.1639 
 151   0.0000       0.154690         4.2093 
 152   0.0000       0.163639         4.4528 
 153   0.0000       0.178120         4.8469 
 154   0.0000       0.184986         5.0337 
 155   0.0000       0.190695         5.1891 
 156   0.0000       0.192825         5.2470 
 157   0.0000       0.199008         5.4153 
 158   0.0000       0.205827         5.6008 
 159   0.0000       0.213711         5.8154 
 160   0.0000       0.219089         5.9617 
 161   0.0000       0.232427         6.3247 
 162   0.0000       0.238901         6.5008 
 163   0.0000       0.242362         6.5950 
 164   0.0000       0.245042         6.6679 
 165   0.0000       0.248622         6.7653 
 166   0.0000       0.255959         6.9650 
 167   0.0000       0.264653         7.2016 
 168   0.0000       0.275350         7.4927 
 169   0.0000       0.277297         7.5456 
 170   0.0000       0.283113         7.7039 
 171   0.0000       0.292021         7.9463 
 172   0.0000       0.299919         8.1612 
 173   0.0000       0.302841         8.2407 
 174   0.0000       0.314502         8.5580 
 175   0.0000       0.315724         8.5913 
 176   0.0000       0.320316         8.7162 
 177   0.0000       0.335952         9.1417 
 178   0.0000       0.347347         9.4518 
 179   0.0000       0.352057         9.5800 
 180   0.0000       0.370841        10.0911 
 181   0.0000       0.374210        10.1828 
 182   0.0000       0.381261        10.3746 
 183   0.0000       0.386852        10.5268 
 184   0.0000       0.392306        10.6752 
 185   0.0000       0.394044        10.7225 
 186   0.0000       0.401384        10.9222 
 187   0.0000       0.404111        10.9964 
 188   0.0000       0.407193        11.0803 
 189   0.0000       0.408065        11.1040 
 190   0.0000       0.415276        11.3002 
 191   0.0000       0.418822        11.3967 
 192   0.0000       0.423084        11.5127 
 193   0.0000       0.427331        11.6283 
 194   0.0000       0.430754        11.7214 
 195   0.0000       0.437705        11.9106 
 196   0.0000       0.440908        11.9977 
 197   0.0000       0.446010        12.1366 
 198   0.0000       0.450964        12.2714 
 199   0.0000       0.455271        12.3885 
 200   0.0000       0.459594        12.5062 
 201   0.0000       0.467787        12.7291 
 202   0.0000       0.471239        12.8231 
 203   0.0000       0.484362        13.1802 
 204   0.0000       0.495628        13.4867 
 205   0.0000       0.500055        13.6072 
 206   0.0000       0.509295        13.8586 
 207   0.0000       0.510699        13.8968 
 208   0.0000       0.522966        14.2306 
 209   0.0000       0.526054        14.3146 
 210   0.0000       0.526461        14.3257 
 211   0.0000       0.537303        14.6208 
 212   0.0000       0.542566        14.7640 
 213   0.0000       0.548076        14.9139 
 214   0.0000       0.553711        15.0672 
 215   0.0000       0.560782        15.2597 
 216   0.0000       0.569601        15.4996 
 217   0.0000       0.574668        15.6375 
 218   0.0000       0.578395        15.7389 
 219   0.0000       0.585396        15.9294 
 220   0.0000       0.589927        16.0527 
 221   0.0000       0.591350        16.0914 
 222   0.0000       0.593862        16.1598 
 223   0.0000       0.598940        16.2980 
 224   0.0000       0.602993        16.4083 
 225   0.0000       0.604678        16.4541 
 226   0.0000       0.608422        16.5560 
 227   0.0000       0.610413        16.6102 
 228   0.0000       0.611304        16.6344 
 229   0.0000       0.614160        16.7121 
 230   0.0000       0.619251        16.8507 
 231   0.0000       0.620013        16.8714 
 232   0.0000       0.623970        16.9791 
 233   0.0000       0.625639        17.0245 
 234   0.0000       0.632816        17.2198 
 235   0.0000       0.640266        17.4225 
 236   0.0000       0.647191        17.6110 
 237   0.0000       0.649529        17.6746 
 238   0.0000       0.652166        17.7463 
 239   0.0000       0.654234        17.8026 
 240   0.0000       0.656936        17.8761 
 241   0.0000       0.661443        17.9988 
 242   0.0000       0.663682        18.0597 
 243   0.0000       0.665409        18.1067 
 244   0.0000       0.670395        18.2424 
 245   0.0000       0.677355        18.4318 
 246   0.0000       0.680726        18.5235 
 247   0.0000       0.685520        18.6539 
 248   0.0000       0.692206        18.8359 
 249   0.0000       0.695949        18.9377 
 250   0.0000       0.698260        19.0006 
 251   0.0000       0.705473        19.1969 
 252   0.0000       0.714870        19.4526 
 253   0.0000       0.730808        19.8863 
 254   0.0000       0.733259        19.9530 
 255   0.0000       0.734698        19.9922 
 256   0.0000       0.740994        20.1635 
 257   0.0000       0.745314        20.2810 
 258   0.0000       0.761398        20.7187 
 259   0.0000       0.767544        20.8859 
 260   0.0000       0.772923        21.0323 
 261   0.0000       0.780718        21.2444 
 262   0.0000       0.791463        21.5368 
 263   0.0000       0.798130        21.7182 
 264   0.0000       0.807129        21.9631 
 265   0.0000       0.815412        22.1885 
 266   0.0000       0.827479        22.5169 
 267   0.0000       0.839619        22.8472 
 268   0.0000       0.847178        23.0529 
 269   0.0000       0.857326        23.3290 
 270   0.0000       0.864819        23.5329 
 271   0.0000       0.867733        23.6122 
 272   0.0000       0.904310        24.6075 
 273   0.0000       0.918029        24.9808 
 274   0.0000       0.921622        25.0786 
 275   0.0000       0.935883        25.4667 
 276   0.0000       0.947493        25.7826 
 277   0.0000       0.952053        25.9067 
 278   0.0000       0.960262        26.1301 
 279   0.0000       0.962564        26.1927 
 280   0.0000       0.963553        26.2196 
 281   0.0000       0.968861        26.3640 
 282   0.0000       0.974035        26.5048 
 283   0.0000       0.994133        27.0517 
 284   0.0000       1.005068        27.3493 
 285   0.0000       1.022328        27.8190 
 286   0.0000       1.035314        28.1723 
 287   0.0000       1.042468        28.3670 
 288   0.0000       1.046659        28.4810 
 289   0.0000       1.059448        28.8290 
 290   0.0000       1.062350        28.9080 
 291   0.0000       1.070999        29.1434 
 292   0.0000       1.087837        29.6015 
 293   0.0000       1.090128        29.6639 
 294   0.0000       1.095113        29.7995 
 295   0.0000       1.103877        30.0380 
 296   0.0000       1.118511        30.4362 
 297   0.0000       1.125090        30.6153 
 298   0.0000       1.126096        30.6426 
 299   0.0000       1.135315        30.8935 
 300   0.0000       1.144191        31.1350 
 301   0.0000       1.145807        31.1790 
 302   0.0000       1.149430        31.2776 
 303   0.0000       1.154045        31.4032 
 304   0.0000       1.158788        31.5322 
 305   0.0000       1.170728        31.8571 
 306   0.0000       1.182054        32.1653 
 307   0.0000       1.189184        32.3593 
 308   0.0000       1.193634        32.4804 
 309   0.0000       1.204205        32.7681 
 310   0.0000       1.205083        32.7920 
 311   0.0000       1.214332        33.0437 
 312   0.0000       1.225726        33.3537 
 313   0.0000       1.239994        33.7420 
 314   0.0000       1.258758        34.2525 
 315   0.0000       1.267329        34.4858 
 316   0.0000       1.269241        34.5378 
 317   0.0000       1.277007        34.7491 
 318   0.0000       1.282308        34.8934 
 319   0.0000       1.284142        34.9433 
 320   0.0000       1.288883        35.0723 
 321   0.0000       1.306717        35.5576 
 322   0.0000       1.309013        35.6200 
 323   0.0000       1.313580        35.7443 
 324   0.0000       1.320569        35.9345 
 325   0.0000       1.326600        36.0986 
 326   0.0000       1.331889        36.2426 
 327   0.0000       1.358808        36.9750 
 328   0.0000       1.373238        37.3677 
 329   0.0000       1.392179        37.8831 
 330   0.0000       1.398810        38.0635 
 331   0.0000       1.400237        38.1024 
 332   0.0000       1.426342        38.8127 
 333   0.0000       1.430749        38.9327 
 334   0.0000       1.437991        39.1297 
 335   0.0000       1.441437        39.2235 
 336   0.0000       1.446319        39.3563 
 337   0.0000       1.452813        39.5330 
 338   0.0000       1.455593        39.6087 
 339   0.0000       1.459827        39.7239 
 340   0.0000       1.474029        40.1104 
 341   0.0000       1.481388        40.3106 
 342   0.0000       1.486990        40.4630 
 343   0.0000       1.494013        40.6542 
 344   0.0000       1.504107        40.9288 
 345   0.0000       1.520016        41.3617 
 346   0.0000       1.524018        41.4706 
 347   0.0000       1.549283        42.1581 
 348   0.0000       1.569388        42.7052 
 349   0.0000       1.591335        43.3024 
 350   0.0000       1.602993        43.6197 
 351   0.0000       1.610715        43.8298 
 352   0.0000       1.621670        44.1279 
 353   0.0000       1.628068        44.3020 
 354   0.0000       1.632206        44.4146 
 355   0.0000       1.635120        44.4939 
 356   0.0000       1.641365        44.6638 
 357   0.0000       1.652229        44.9594 
 358   0.0000       1.661185        45.2031 
 359   0.0000       1.666765        45.3550 
 360   0.0000       1.668095        45.3912 
 361   0.0000       1.675657        45.5969 
 362   0.0000       1.679791        45.7094 
 363   0.0000       1.684333        45.8330 
 364   0.0000       1.689320        45.9687 
 365   0.0000       1.691926        46.0396 
 366   0.0000       1.693981        46.0956 
 367   0.0000       1.699966        46.2584 
 368   0.0000       1.701741        46.3067 
 369   0.0000       1.713638        46.6305 
 370   0.0000       1.714378        46.6506 
 371   0.0000       1.723094        46.8878 
 372   0.0000       1.724968        46.9388 
 373   0.0000       1.727359        47.0038 
 374   0.0000       1.737194        47.2714 
 375   0.0000       1.739988        47.3475 
 376   0.0000       1.743609        47.4460 
 377   0.0000       1.746989        47.5380 
 378   0.0000       1.753635        47.7188 
 379   0.0000       1.759813        47.8870 
 380   0.0000       1.770549        48.1791 
 381   0.0000       1.776849        48.3505 
 382   0.0000       1.778048        48.3831 
 383   0.0000       1.781961        48.4896 
 384   0.0000       1.787748        48.6471 
 385   0.0000       1.795195        48.8497 
 386   0.0000       1.796692        48.8905 
 387   0.0000       1.805761        49.1372 
 388   0.0000       1.816734        49.4359 
 389   0.0000       1.827398        49.7260 
 390   0.0000       1.840195        50.0743 
 391   0.0000       1.849209        50.3195 
 392   0.0000       1.855442        50.4892 
 393   0.0000       1.862157        50.6719 
 394   0.0000       1.864298        50.7301 
 395   0.0000       1.868634        50.8481 
 396   0.0000       1.875715        51.0408 
 397   0.0000       1.888070        51.3770 
 398   0.0000       1.898945        51.6729 
 399   0.0000       1.912149        52.0322 
 400   0.0000       1.913994        52.0824 
 401   0.0000       1.918607        52.2079 
 402   0.0000       1.923104        52.3303 
 403   0.0000       1.933963        52.6258 
 404   0.0000       1.940902        52.8146 
 405   0.0000       1.959206        53.3127 
 406   0.0000       1.961051        53.3629 
 407   0.0000       1.982890        53.9572 
 408   0.0000       1.989827        54.1459 
 409   0.0000       2.010422        54.7064 
 410   0.0000       2.014383        54.8141 
 411   0.0000       2.030081        55.2413 
 412   0.0000       2.046904        55.6991 
 413   0.0000       2.049360        55.7659 
 414   0.0000       2.065363        56.2014 
 415   0.0000       2.070493        56.3410 
 416   0.0000       2.084973        56.7350 
 417   0.0000       2.089495        56.8580 
 418   0.0000       2.099348        57.1262 
 419   0.0000       2.106251        57.3140 
 420   0.0000       2.118997        57.6608 
 421   0.0000       2.123458        57.7822 
 422   0.0000       2.128852        57.9290 
 423   0.0000       2.147649        58.4405 
 424   0.0000       2.162888        58.8552 
 425   0.0000       2.170505        59.0625 
 426   0.0000       2.179851        59.3168 
 427   0.0000       2.190492        59.6063 
 428   0.0000       2.194204        59.7073 
 429   0.0000       2.201148        59.8963 
 430   0.0000       2.204869        59.9975 
 431   0.0000       2.213725        60.2385 
 432   0.0000       2.221902        60.4610 
 433   0.0000       2.230809        60.7034 
 434   0.0000       2.236071        60.8466 
 435   0.0000       2.241795        61.0023 
 436   0.0000       2.247415        61.1553 
 437   0.0000       2.264442        61.6186 
 438   0.0000       2.268344        61.7248 
 439   0.0000       2.294421        62.4344 
 440   0.0000       2.311317        62.8941 
 441   0.0000       2.324528        63.2536 
 442   0.0000       2.330399        63.4134 
 443   0.0000       2.336119        63.5690 
 444   0.0000       2.344413        63.7947 
 445   0.0000       2.347501        63.8788 
 446   0.0000       2.385964        64.9254 
 447   0.0000       2.409007        65.5524 
 448   0.0000       2.426298        66.0229 
 449   0.0000       2.449847        66.6637 
 450   0.0000       2.455033        66.8048 
 451   0.0000       2.467150        67.1346 
 452   0.0000       2.471731        67.2592 
 453   0.0000       2.490492        67.7697 
 454   0.0000       2.496954        67.9456 
 455   0.0000       2.507661        68.2369 
 456   0.0000       2.518007        68.5185 
 457   0.0000       2.533241        68.9330 
 458   0.0000       2.553385        69.4811 
 459   0.0000       2.564076        69.7721 
 460   0.0000       2.569131        69.9096 
 461   0.0000       2.574332        70.0511 
 462   0.0000       2.586088        70.3710 
 463   0.0000       2.589753        70.4708 
 464   0.0000       2.601566        70.7922 
 465   0.0000       2.608596        70.9835 
 466   0.0000       2.610654        71.0395 
 467   0.0000       2.612960        71.1023 
 468   0.0000       2.631177        71.5980 
 469   0.0000       2.634836        71.6975 
 470   0.0000       2.640397        71.8488 
 471   0.0000       2.673504        72.7497 
 472   0.0000       2.693008        73.2805 
 473   0.0000       2.705197        73.6122 
 474   0.0000       2.721630        74.0593 
 475   0.0000       2.751335        74.8676 
 476   0.0000       2.758272        75.0564 
 477   0.0000       2.763045        75.1863 
 478   0.0000       2.778081        75.5954 
 479   0.0000       2.780238        75.6541 
 480   0.0000       2.783927        75.7545 
 481   0.0000       2.786713        75.8303 
 482   0.0000       2.793680        76.0199 
 483   0.0000       2.805255        76.3349 
 484   0.0000       2.832917        77.0876 
 485   0.0000       2.837425        77.2103 
 486   0.0000       2.851953        77.6056 
 487   0.0000       2.855156        77.6928 
 488   0.0000       2.860858        77.8479 
 489   0.0000       2.879399        78.3524 
 490   0.0000       2.896046        78.8054 
 491   0.0000       2.899104        78.8886 
 492   0.0000       2.903128        78.9981 
 493   0.0000       2.913694        79.2856 
 494   0.0000       2.916609        79.3650 
 495   0.0000       2.930511        79.7432 
 496   0.0000       2.935317        79.8740 
 497   0.0000       2.943526        80.0974 
 498   0.0000       2.950228        80.2798 
 499   0.0000       2.955823        80.4320 
 500   0.0000       2.961656        80.5908 
 501   0.0000       2.969997        80.8177 
 502   0.0000       2.972837        80.8950 
 503   0.0000       2.978894        81.0598 
 504   0.0000       2.997607        81.5690 
 505   0.0000       3.019524        82.1654 
 506   0.0000       3.025542        82.3292 
 507   0.0000       3.036504        82.6275 
 508   0.0000       3.050583        83.0106 
 509   0.0000       3.069961        83.5379 
 510   0.0000       3.094489        84.2053 
 511   0.0000       3.129478        85.1574 
 512   0.0000       3.132364        85.2360 
 513   0.0000       3.168594        86.2218 
 514   0.0000       3.194429        86.9248 
 515   0.0000       3.227887        87.8353 
 516   0.0000       3.253704        88.5378 
 517   0.0000       3.289816        89.5205 
 518   0.0000       3.303885        89.9033 
 519   0.0000       3.379593        91.9634 
 520   0.0000       3.405396        92.6655 
 521   0.0000       3.425168        93.2035 
 522   0.0000       3.439253        93.5868 
 523   0.0000       3.440862        93.6306 
 524   0.0000       3.497999        95.1854 
 525   0.0000       3.525205        95.9257 
 526   0.0000       3.535275        96.1997 
 527   0.0000       3.565818        97.0308 
 528   0.0000       3.591962        97.7422 
 529   0.0000       3.614472        98.3548 
 530   0.0000       3.692533       100.4789 
 531   0.0000       3.738421       101.7276 
 532   0.0000       3.801345       103.4398 

                    ********************************
                    * MULLIKEN POPULATION ANALYSIS *
                    ********************************

-----------------------
MULLIKEN ATOMIC CHARGES
-----------------------
   0 H :   -0.025860
   1 C :   -0.012221
   2 C :    0.176624
   3 O :   -0.237700
   4 C :    0.242711
   5 O :   -0.201261
   6 C :   -0.064074
   7 C :    0.009780
   8 H :   -0.011048
   9 C :    0.013552
  10 C :   -0.012910
  11 O :   -0.188783
  12 C :    0.070138
  13 H :    0.047307
  14 H :    0.053400
  15 H :    0.029268
  16 C :   -0.019312
  17 H :   -0.016969
  18 C :    0.136817
  19 N :   -0.006438
  20 H :    0.136343
  21 C :   -0.001060
  22 S :   -0.336449
  23 N :   -0.122093
  24 H :    0.138923
  25 C :    0.114339
  26 H :    0.032489
  27 H :    0.026532
  28 C :   -0.032397
  29 H :    0.022719
  30 H :    0.031092
  31 H :    0.029809
  32 C :   -0.056335
  33 H :   -0.006413
  34 C :   -0.035342
  35 H :    0.000318
  36 C :    0.172381
  37 O :   -0.213803
  38 C :    0.472764
  39 F :   -0.160802
  40 F :   -0.131976
  41 F :   -0.155963
  42 C :   -0.084870
  43 H :   -0.016914
  44 C :    0.195522
  45 O :   -0.288037
  46 C :    0.167707
  47 H :    0.037249
  48 H :    0.036870
  49 H :    0.044374
Sum of atomic charges:   -0.0000000

--------------------------------
MULLIKEN REDUCED ORBITAL CHARGES
--------------------------------
  0 H s       :     1.001092  s :     1.001092
      pz      :     0.005921  p :     0.024768
      px      :     0.011482
      py      :     0.007365
  1 C s       :     3.342076  s :     3.342076
      pz      :     1.021707  p :     2.641726
      px      :     0.754596
      py      :     0.865423
      dz2     :     0.003445  d :     0.028419
      dxz     :     0.004716
      dyz     :     0.004478
      dx2y2   :     0.008047
      dxy     :     0.007733
  2 C s       :     2.960158  s :     2.960158
      pz      :     0.995919  p :     2.792808
      px      :     0.986880
      py      :     0.810008
      dz2     :     0.007005  d :     0.070410
      dxz     :     0.010661
      dyz     :     0.012850
      dx2y2   :     0.021559
      dxy     :     0.018335
  3 O s       :     3.717754  s :     3.717754
      pz      :     1.486555  p :     4.503617
      px      :     1.608892
      py      :     1.408170
      dz2     :     0.003450  d :     0.016330
      dxz     :     0.003442
      dyz     :     0.002825
      dx2y2   :     0.004270
      dxy     :     0.002343
  4 C s       :     3.006735  s :     3.006735
      pz      :     0.825755  p :     2.619730
      px      :     0.830084
      py      :     0.963891
      dz2     :     0.029063  d :     0.130824
      dxz     :     0.026222
      dyz     :     0.021535
      dx2y2   :     0.032322
      dxy     :     0.021682
  5 O s       :     3.742947  s :     3.742947
      pz      :     1.485899  p :     4.440516
      px      :     1.398696
      py      :     1.555921
      dz2     :     0.002828  d :     0.017799
      dxz     :     0.002968
      dyz     :     0.003858
      dx2y2   :     0.003674
      dxy     :     0.004470
  6 C s       :     3.102020  s :     3.102020
      pz      :     0.993368  p :     2.923188
      px      :     0.987675
      py      :     0.942145
      dz2     :     0.008224  d :     0.038867
      dxz     :     0.005943
      dyz     :     0.007109
      dx2y2   :     0.010500
      dxy     :     0.007090
  7 C s       :     3.306303  s :     3.306303
      pz      :     0.868210  p :     2.651617
      px      :     0.885846
      py      :     0.897560
      dz2     :     0.004156  d :     0.032300
      dxz     :     0.004100
      dyz     :     0.008035
      dx2y2   :     0.007696
      dxy     :     0.008313
  8 H s       :     0.985996  s :     0.985996
      pz      :     0.010045  p :     0.025052
      px      :     0.008740
      py      :     0.006268
  9 C s       :     3.077877  s :     3.077877
      pz      :     0.974838  p :     2.869896
      px      :     0.979627
      py      :     0.915432
      dz2     :     0.006490  d :     0.038675
      dxz     :     0.004940
      dyz     :     0.009124
      dx2y2   :     0.007996
      dxy     :     0.010125
 10 C s       :     3.156136  s :     3.156136
      pz      :     0.892041  p :     2.763618
      px      :     0.938930
      py      :     0.932647
      dz2     :     0.009696  d :     0.093156
      dxz     :     0.005587
      dyz     :     0.025844
      dx2y2   :     0.020191
      dxy     :     0.031837
 11 O s       :     3.745610  s :     3.745610
      pz      :     1.475852  p :     4.426082
      px      :     1.598107
      py      :     1.352123
      dz2     :     0.001976  d :     0.017092
      dxz     :     0.000208
      dyz     :     0.004946
      dx2y2   :     0.005484
      dxy     :     0.004477
 12 C s       :     2.910158  s :     2.910158
      pz      :     1.002574  p :     2.998150
      px      :     0.989917
      py      :     1.005659
      dz2     :     0.002257  d :     0.021554
      dxz     :     0.006120
      dyz     :     0.004966
      dx2y2   :     0.002051
      dxy     :     0.006162
 13 H s       :     0.926875  s :     0.926875
      pz      :     0.007500  p :     0.025818
      px      :     0.008348
      py      :     0.009970
 14 H s       :     0.920492  s :     0.920492
      pz      :     0.011645  p :     0.026108
      px      :     0.006797
      py      :     0.007666
 15 H s       :     0.946583  s :     0.946583
      pz      :     0.005706  p :     0.024149
      px      :     0.008043
      py      :     0.010400
 16 C s       :     3.352699  s :     3.352699
      pz      :     0.944509  p :     2.635514
      px      :     0.928041
      py      :     0.762963
      dz2     :     0.006454  d :     0.031099
      dxz     :     0.004953
      dyz     :     0.006153
      dx2y2   :     0.007441
      dxy     :     0.006098
 17 H s       :     0.991984  s :     0.991984
      pz      :     0.004879  p :     0.024985
      px      :     0.004415
      py      :     0.015692
 18 C s       :     2.941506  s :     2.941506
      pz      :     0.940266  p :     2.862911
      px      :     0.930551
      py      :     0.992093
      dz2     :     0.012123  d :     0.058766
      dxz     :     0.008891
      dyz     :     0.012725
      dx2y2   :     0.012839
      dxy     :     0.012188
 19 N s       :     3.308075  s :     3.308075
      pz      :     1.209332  p :     3.677177
      px      :     1.380725
      py      :     1.087120
      dz2     :     0.006045  d :     0.021186
      dxz     :     0.004618
      dyz     :     0.003805
      dx2y2   :     0.003956
      dxy     :     0.002763
 20 H s       :     0.817747  s :     0.817747
      pz      :     0.008607  p :     0.045910
      px      :     0.010457
      py      :     0.026846
 21 C s       :     3.062746  s :     3.062746
      pz      :     0.917298  p :     2.848933
      px      :     0.961864
      py      :     0.969770
      dz2     :     0.020381  d :     0.089381
      dxz     :     0.013956
      dyz     :     0.018058
      dx2y2   :     0.019733
      dxy     :     0.017252
 22 S s       :     5.942274  s :     5.942274
      pz      :     3.590838  p :    10.344202
      px      :     3.305579
      py      :     3.447784
      dz2     :     0.005801  d :     0.049974
      dxz     :     0.009343
      dyz     :     0.010433
      dx2y2   :     0.008341
      dxy     :     0.016055
 23 N s       :     3.354546  s :     3.354546
      pz      :     1.318376  p :     3.745565
      px      :     1.277482
      py      :     1.149707
      dz2     :     0.004127  d :     0.021982
      dxz     :     0.003463
      dyz     :     0.005073
      dx2y2   :     0.004679
      dxy     :     0.004639
 24 H s       :     0.814877  s :     0.814877
      pz      :     0.012770  p :     0.046200
      px      :     0.020364
      py      :     0.013066
 25 C s       :     2.986418  s :     2.986418
      pz      :     0.857997  p :     2.852540
      px      :     1.012967
      py      :     0.981576
      dz2     :     0.012151  d :     0.046704
      dxz     :     0.010583
      dyz     :     0.009732
[...]
 24 H s       :     0.779126  s :     0.779126
      pz      :     0.035046  p :     0.129784
      px      :     0.060583
      py      :     0.034155
 25 C s       :     2.833505  s :     2.833505
      pz      :     0.935005  p :     3.018591
      px      :     1.040553
      py      :     1.043033
      dz2     :     0.027036  d :     0.113851
      dxz     :     0.028109
      dyz     :     0.022989
      dx2y2   :     0.009441
      dxy     :     0.026276
 26 H s       :     0.913601  s :     0.913601
      pz      :     0.015295  p :     0.075732
      px      :     0.030037
      py      :     0.030401
 27 H s       :     0.903157  s :     0.903157
      pz      :     0.013048  p :     0.067213
      px      :     0.019360
      py      :     0.034805
 28 C s       :     2.840093  s :     2.840093
      pz      :     1.038504  p :     3.148652
      px      :     1.042482
      py      :     1.067666
      dz2     :     0.009592  d :     0.068864
      dxz     :     0.019980
      dyz     :     0.012913
      dx2y2   :     0.007106
      dxy     :     0.019273
 29 H s       :     0.904138  s :     0.904138
      pz      :     0.017143  p :     0.068244
      px      :     0.027784
      py      :     0.023317
 30 H s       :     0.904945  s :     0.904945
      pz      :     0.015907  p :     0.068120
      px      :     0.018573
      py      :     0.033640
 31 H s       :     0.898137  s :     0.898137
      pz      :     0.031085  p :     0.068171
      px      :     0.018052
      py      :     0.019033
 32 C s       :     2.858941  s :     2.858941
      pz      :     1.007878  p :     3.059885
      px      :     1.013264
      py      :     1.038743
      dz2     :     0.013527  d :     0.087273
      dxz     :     0.011697
      dyz     :     0.020399
      dx2y2   :     0.019914
      dxy     :     0.021735
 33 H s       :     0.887255  s :     0.887255
      pz      :     0.019044  p :     0.077830
      px      :     0.029432
      py      :     0.029354
 34 C s       :     2.856646  s :     2.856646
      pz      :     1.055666  p :     3.148740
      px      :     1.050834
      py      :     1.042240
      dz2     :     0.009286  d :     0.085803
      dxz     :     0.009852
      dyz     :     0.013856
      dx2y2   :     0.026825
      dxy     :     0.025983
 35 H s       :     0.887043  s :     0.887043
      pz      :     0.018423  p :     0.078643
      px      :     0.041202
      py      :     0.019018
 36 C s       :     2.839134  s :     2.839134
      pz      :     1.009885  p :     2.933964
      px      :     0.918343
      py      :     1.005736
      dz2     :     0.015916  d :     0.161081
      dxz     :     0.027222
      dyz     :     0.020630
      dx2y2   :     0.041748
      dxy     :     0.055565
 37 O s       :     3.421206  s :     3.421206
      pz      :     1.716914  p :     4.578432
      px      :     1.240854
      py      :     1.620664
      dz2     :     0.004300  d :     0.033186
      dxz     :     0.006513
      dyz     :     0.002696
      dx2y2   :     0.008680
      dxy     :     0.010997
 38 C s       :     2.813174  s :     2.813174
      pz      :     0.855628  p :     2.619195
      px      :     0.911568
      py      :     0.851999
      dz2     :     0.108534  d :     0.471887
      dxz     :     0.079711
      dyz     :     0.088080
      dx2y2   :     0.093048
      dxy     :     0.102512
 39 F s       :     3.743156  s :     3.743156
      pz      :     1.805991  p :     5.303197
      px      :     1.855395
      py      :     1.641811
      dz2     :     0.001396  d :     0.012853
      dxz     :     0.001156
      dyz     :     0.004560
      dx2y2   :     0.002940
      dxy     :     0.002801
 40 F s       :     3.730826  s :     3.730826
      pz      :     1.861456  p :     5.293222
      px      :     1.742902
      py      :     1.688863
      dz2     :     0.001805  d :     0.013237
      dxz     :     0.001565
      dyz     :     0.002222
      dx2y2   :     0.002113
      dxy     :     0.005531
 41 F s       :     3.741842  s :     3.741842
      pz      :     1.545172  p :     5.301736
      px      :     1.877120
      py      :     1.879444
      dz2     :     0.007157  d :     0.012984
      dxz     :     0.002799
      dyz     :     0.002525
      dx2y2   :     0.000227
      dxy     :     0.000276
 42 C s       :     2.856892  s :     2.856892
      pz      :     1.061009  p :     3.143804
      px      :     1.036632
      py      :     1.046163
      dz2     :     0.006909  d :     0.083423
      dxz     :     0.015572
      dyz     :     0.007039
      dx2y2   :     0.026842
      dxy     :     0.027062
 43 H s       :     0.878136  s :     0.878136
      pz      :     0.022613  p :     0.076941
      px      :     0.011946
      py      :     0.042383
 44 C s       :     2.831860  s :     2.831860
      pz      :     0.974288  p :     2.940386
      px      :     0.922093
      py      :     1.044005
      dz2     :     0.016339  d :     0.179751
      dxz     :     0.037215
      dyz     :     0.016933
      dx2y2   :     0.058280
      dxy     :     0.050984
 45 O s       :     3.435252  s :     3.435252
      pz      :     1.691354  p :     4.603253
      px      :     1.466785
      py      :     1.445114
      dz2     :     0.004022  d :     0.032231
      dxz     :     0.004497
      dyz     :     0.004543
      dx2y2   :     0.012421
      dxy     :     0.006749
 46 C s       :     2.848041  s :     2.848041
      pz      :     1.043070  p :     2.952119
      px      :     1.079625
      py      :     0.829423
      dz2     :     0.022224  d :     0.115659
      dxz     :     0.010087
      dyz     :     0.032412
      dx2y2   :     0.035577
      dxy     :     0.015359
 47 H s       :     0.907656  s :     0.907656
      pz      :     0.023330  p :     0.067845
      px      :     0.017203
      py      :     0.027312
 48 H s       :     0.907668  s :     0.907668
      pz      :     0.040228  p :     0.067825
      px      :     0.017985
      py      :     0.009612
 49 H s       :     0.900927  s :     0.900927
      pz      :     0.012644  p :     0.065591
      px      :     0.044005
      py      :     0.008942


                      *****************************
                      * MAYER POPULATION ANALYSIS *
                      *****************************

  NA   - Mulliken gross atomic population
  ZA   - Total nuclear charge
  QA   - Mulliken gross atomic charge
  VA   - Mayer's total valence
  BVA  - Mayer's bonded valence
  FA   - Mayer's free valence

  ATOM       NA         ZA         QA         VA         BVA        FA
  0 H      1.0156     1.0000    -0.0156     1.0131     1.0131     0.0000
  1 C      6.0179     6.0000    -0.0179     3.7722     3.7722    -0.0000
  2 C      5.8268     6.0000     0.1732     3.8699     3.8699    -0.0000
  3 O      8.2342     8.0000    -0.2342     2.2792     2.2792    -0.0000
  4 C      5.7455     6.0000     0.2545     4.1859     4.1859     0.0000
  5 O      8.2215     8.0000    -0.2215     2.3014     2.3014    -0.0000
  6 C      6.0676     6.0000    -0.0676     3.7317     3.7317     0.0000
  7 C      5.9833     6.0000     0.0167     3.7805     3.7805     0.0000
  8 H      0.9977     1.0000     0.0023     1.0323     1.0323    -0.0000
  9 C      5.9879     6.0000     0.0121     3.6351     3.6351    -0.0000
 10 C      6.0086     6.0000    -0.0086     4.2448     4.2448    -0.0000
 11 O      8.2170     8.0000    -0.2170     2.2958     2.2958    -0.0000
 12 C      5.9309     6.0000     0.0691     3.8951     3.8951     0.0000
 13 H      0.9406     1.0000     0.0594     0.9975     0.9975     0.0000
 14 H      0.9350     1.0000     0.0650     0.9975     0.9975     0.0000
 15 H      0.9750     1.0000     0.0250     1.0180     1.0180    -0.0000
 16 C      6.0187     6.0000    -0.0187     3.7974     3.7974     0.0000
 17 H      1.0144     1.0000    -0.0144     1.0332     1.0332     0.0000
 18 C      5.8668     6.0000     0.1332     3.8533     3.8533    -0.0000
 19 N      7.0065     7.0000    -0.0065     3.2921     3.2921    -0.0000
 20 H      0.8527     1.0000     0.1473     1.0215     1.0215     0.0000
 21 C      5.9817     6.0000     0.0183     4.0964     4.0964    -0.0000
 22 S     16.4172    16.0000    -0.4172     1.8085     1.8085     0.0000
 23 N      7.1150     7.0000    -0.1150     3.4216     3.4216    -0.0000
 24 H      0.8390     1.0000     0.1610     0.9997     0.9997     0.0000
 25 C      5.8855     6.0000     0.1145     4.0000     4.0000    -0.0000
 26 H      0.9812     1.0000     0.0188     1.0562     1.0562    -0.0000
 27 H      0.9656     1.0000     0.0344     0.9792     0.9792    -0.0000
 28 C      6.0330     6.0000    -0.0330     4.0353     4.0353    -0.0000
 29 H      0.9659     1.0000     0.0341     0.9912     0.9912    -0.0000
 30 H      0.9727     1.0000     0.0273     0.9945     0.9945     0.0000
 31 H      0.9677     1.0000     0.0323     0.9906     0.9906     0.0000
 32 C      6.0459     6.0000    -0.0459     3.8183     3.8183    -0.0000
 33 H      1.0026     1.0000    -0.0026     1.0415     1.0415     0.0000
 34 C      6.0533     6.0000    -0.0533     3.7526     3.7526    -0.0000
 35 H      0.9980     1.0000     0.0020     1.0516     1.0516     0.0000
 36 C      5.8275     6.0000     0.1725     3.8570     3.8570     0.0000
 37 O      8.2144     8.0000    -0.2144     2.2434     2.2434     0.0000
 38 C      5.5256     6.0000     0.4744     4.6888     4.6888     0.0000
 39 F      9.1624     9.0000    -0.1624     1.1954     1.1954     0.0000
 40 F      9.1352     9.0000    -0.1352     1.2181     1.2181     0.0000
 41 F      9.1601     9.0000    -0.1601     1.1978     1.1978    -0.0000
 42 C      6.0854     6.0000    -0.0854     3.7476     3.7476     0.0000
 43 H      1.0027     1.0000    -0.0027     1.0209     1.0209    -0.0000
 44 C      5.8052     6.0000     0.1948     3.8619     3.8619    -0.0000
 45 O      8.2938     8.0000    -0.2938     2.2686     2.2686     0.0000
 46 C      5.8378     6.0000     0.1622     3.9072     3.9072    -0.0000
 47 H      0.9551     1.0000     0.0449     0.9897     0.9897     0.0000
 48 H      0.9550     1.0000     0.0450     0.9896     0.9896    -0.0000
 49 H      0.9515     1.0000     0.0485     0.9914     0.9914     0.0000

  Mayer bond orders larger than 0.100000
B(  0-H ,  1-C ) :   1.0125 B(  1-C ,  2-C ) :   1.3925 B(  1-C , 44-C ) :   1.2773 
B(  2-C ,  3-O ) :   0.9533 B(  2-C , 34-C ) :   1.2856 B(  3-O ,  4-C ) :   1.1568 
B(  4-C ,  5-O ) :   2.0468 B(  4-C ,  6-C ) :   0.9328 B(  6-C ,  7-C ) :   1.3296 
B(  6-C , 32-C ) :   1.3553 B(  7-C ,  8-H ) :   0.9856 B(  7-C ,  9-C ) :   1.3103 
B(  9-C , 10-C ) :   0.9126 B(  9-C , 16-C ) :   1.3569 B( 10-C , 11-O ) :   2.1116 
B( 10-C , 12-C ) :   1.1000 B( 12-C , 13-H ) :   0.9307 B( 12-C , 14-H ) :   0.9186 
B( 12-C , 15-H ) :   0.9375 B( 16-C , 17-H ) :   0.9936 B( 16-C , 18-C ) :   1.2916 
B( 18-C , 19-N ) :   1.0972 B( 18-C , 32-C ) :   1.2833 B( 19-N , 20-H ) :   0.8874 
B( 19-N , 21-C ) :   1.1901 B( 21-C , 22-S ) :   1.4320 B( 21-C , 23-N ) :   1.3447 
B( 22-S , 26-H ) :   0.1011 B( 23-N , 24-H ) :   0.8999 B( 23-N , 25-C ) :   0.9756 
B( 25-C , 26-H ) :   0.9132 B( 25-C , 27-H ) :   0.9379 B( 25-C , 28-C ) :   1.1176 
B( 28-C , 29-H ) :   0.9686 B( 28-C , 30-H ) :   0.9668 B( 28-C , 31-H ) :   0.9606 
B( 32-C , 33-H ) :   0.9855 B( 34-C , 35-H ) :   0.9851 B( 34-C , 36-C ) :   1.3155 
B( 36-C , 37-O ) :   0.9719 B( 36-C , 42-C ) :   1.3388 B( 37-O , 38-C ) :   1.1941 
B( 38-C , 39-F ) :   1.1180 B( 38-C , 40-F ) :   1.1688 B( 38-C , 41-F ) :   1.1255 
B( 42-C , 43-H ) :   1.0064 B( 42-C , 44-C ) :   1.2656 B( 44-C , 45-O ) :   1.1707 
B( 45-O , 46-C ) :   0.9423 B( 46-C , 47-H ) :   0.9653 B( 46-C , 48-H ) :   0.9654 
B( 46-C , 49-H ) :   0.9731 


------------------
HIRSHFELD ANALYSIS
------------------

Total integrated alpha density =    117.999950299
Total integrated beta density  =    117.999950299

  ATOM     CHARGE      SPIN    
   0 H    0.049416    0.000000
   1 C   -0.066454    0.000000
   2 C    0.078588    0.000000
   3 O   -0.083155    0.000000
   4 C    0.215856    0.000000
   5 O   -0.272036    0.000000
   6 C   -0.012278    0.000000
   7 C   -0.024592    0.000000
   8 H    0.044082    0.000000
   9 C   -0.010387    0.000000
  10 C    0.167502    0.000000
  11 O   -0.269703    0.000000
  12 C   -0.070029    0.000000
  13 H    0.050473    0.000000
  14 H    0.053935    0.000000
  15 H    0.039143    0.000000
  16 C   -0.019553    0.000000
  17 H    0.045266    0.000000
  18 C    0.063176    0.000000
  19 N   -0.069750    0.000000
  20 H    0.139265    0.000000
  21 C    0.120876    0.000000
  22 S   -0.400504    0.000000
  23 N   -0.062769    0.000000
  24 H    0.134438    0.000000
  25 C    0.025699    0.000000
  26 H    0.019887    0.000000
  27 H    0.038163    0.000000
  28 C   -0.065787    0.000000
  29 H    0.032827    0.000000
  30 H    0.028957    0.000000
  31 H    0.036807    0.000000
  32 C   -0.026131    0.000000
  33 H    0.043822    0.000000
  34 C   -0.084534    0.000000
  35 H    0.033163    0.000000
  36 C    0.076329    0.000000
  37 O   -0.123872    0.000000
  38 C    0.336461    0.000000
  39 F   -0.109737    0.000000
  40 F   -0.105002    0.000000
  41 F   -0.109064    0.000000
  42 C   -0.071500    0.000000
  43 H    0.050242    0.000000
  44 C    0.085655    0.000000
  45 O   -0.123319    0.000000
  46 C    0.032237    0.000000
  47 H    0.043406    0.000000
  48 H    0.043428    0.000000
  49 H    0.051157    0.000000

  TOTAL   0.000099    0.000000

-------
TIMINGS
-------

Total SCF time: 0 days 0 hours 4 min 42 sec 

Total time                  ....     282.326 sec
Sum of individual times     ....     250.913 sec  ( 88.9%)

Fock matrix formation       ....     233.525 sec  ( 82.7%)
  Split-RI-J                ....      50.978 sec  ( 21.8% of F)
  XC integration            ....      73.379 sec  ( 31.4% of F)
    Basis function eval.    ....      20.054 sec  ( 27.3% of XC)
    Density eval.           ....      11.589 sec  ( 15.8% of XC)
    XC-Functional eval.     ....       4.511 sec  (  6.1% of XC)
    XC-Potential eval.      ....       8.235 sec  ( 11.2% of XC)
Diagonalization             ....       0.416 sec  (  0.1%)
Density matrix formation    ....       0.126 sec  (  0.0%)
Population analysis         ....       5.319 sec  (  1.9%)
Initial guess               ....       0.115 sec  (  0.0%)
Orbital Transformation      ....       0.000 sec  (  0.0%)
Orbital Orthonormalization  ....       0.073 sec  (  0.0%)
DIIS solution               ....       0.041 sec  (  0.0%)
SOSCF solution              ....       3.931 sec  (  1.4%)
Grid generation             ....       7.441 sec  (  2.6%)

Maximum memory used throughout the entire SCF-calculation: 239.7 MB


-------------------------------------------------------------------------------
                          DFT DISPERSION CORRECTION                            
                                                                               
                              DFTD3 V3.1  Rev 1                                
                          USING Becke-Johnson damping                          
-------------------------------------------------------------------------------
The revPBE functional is recognized
Active option DFTDOPT                   ...         4   

molecular C6(AA) [au] = 29900.554777 


            DFT-D V3
 parameters
 s6 scaling factor         :     1.0000 
 a1 scaling factor         :     0.5238 
 s8 scaling factor         :     2.3550 
 a2 scaling factor         :     3.5016 
 ad hoc parameters k1-k3   :    16.0000     1.3333    -4.0000 

 Edisp/kcal,au: -95.703007631749  -0.152512434280 
 E6   /kcal   : -39.034461020 
 E8   /kcal   : -56.668546612 
 % E8         :  59.212921322 

-------------------------   ----------------
Dispersion correction           -0.152512434
-------------------------   ----------------


-------------------------   --------------------
FINAL SINGLE POINT ENERGY     -1955.327383653241
-------------------------   --------------------


                            ***************************************
                            *     ORCA property calculations      *
                            ***************************************

                                    ---------------------
                                    Active property flags
                                    ---------------------
   (+) Dipole Moment


------------------------------------------------------------------------------
                       ORCA ELECTRIC PROPERTIES CALCULATION
------------------------------------------------------------------------------

Dipole Moment Calculation                       ... on
Quadrupole Moment Calculation                   ... off
Polarizability Calculation                      ... off
GBWName                                         ... /home/sk77/PycharmProjects/omg_database_publication/run_calculation/calculation_results/pareto_greedy/0/reaction_10005258/opt_n_1/conformer_10/property_cosmo.gbw
Electron density                                ... /home/sk77/PycharmProjects/omg_database_publication/run_calculation/calculation_results/pareto_greedy/0/reaction_10005258/opt_n_1/conformer_10/property_cosmo.scfp
The origin for moment calculation is the CENTER OF MASS  = (-0.936842, -0.261439 -0.496498)

-------------
DIPOLE MOMENT
-------------
                                X             Y             Z
Electronic contribution:    -21.04444     -20.83895     -23.47044
Nuclear contribution   :     24.44929      18.16857      22.05824
                        -----------------------------------------
Total Dipole Moment    :      3.40485      -2.67038      -1.41220
                        -----------------------------------------
Magnitude (a.u.)       :      4.55173
Magnitude (Debye)      :     11.56957



--------------------
Rotational spectrum 
--------------------
 
Rotational constants in cm-1:     0.005146     0.001994     0.001632 
Rotational constants in MHz :   154.269735    59.764594    48.940841 

 Dipole components along the rotational axes: 
x,y,z [a.u.] :     3.462561     2.140561     2.036393 
x,y,z [Debye]:     8.801130     5.440874     5.176101 

 
------------------------------------------------------------------------------
                      ORCA CHELPG CHARGES GENERATION
------------------------------------------------------------------------------

GBW file                           ... /home/sk77/PycharmProjects/omg_database_publication/run_calculation/calculation_results/pareto_greedy/0/reaction_10005258/opt_n_1/conformer_10/property_cosmo.gbw
Density                            ... /home/sk77/PycharmProjects/omg_database_publication/run_calculation/calculation_results/pareto_greedy/0/reaction_10005258/opt_n_1/conformer_10/property_cosmo.scfp

Reading the GBW file               ... done
Reading the density                ... done

Grid spacing                       ...     0.300000
Point Cut-Off                      ...     2.800000
Van-der-Waals Radii                ...        COSMO
Total charge                       ...            0


Number of points X direction       ...           46
Number of points Y direction       ...           57
Number of points Z direction       ...           55
Maximum number of possible points  ...       144210
Final number of points             ...        26678



Timings for individual modules:

Sum of individual times         ...      315.052 sec (=   5.251 min)
GTO integral calculation        ...        8.816 sec (=   0.147 min)   2.8 %
SCF iterations                  ...      283.696 sec (=   4.728 min)  90.0 %
CHELPG charge generation        ...       22.539 sec (=   0.376 min)   7.2 %



                             ****ORCA TERMINATED NORMALLY****
TOTAL RUN TIME: 0 days 0 hours 33 minutes 5 seconds 886 msec
