
                                 *****************
                                 * O   R   C   A *
                                 *****************

                                            #,                                       
                                            ###                                      
                                            ####                                     
                                            #####                                    
                                            ######                                   
                                           ########,                                 
                                     ,,################,,,,,                         
                               ,,#################################,,                 
                          ,,##########################################,,             
                       ,#########################################, ''#####,          
                    ,#############################################,,   '####,        
                  ,##################################################,,,,####,       
                ,###########''''           ''''###############################       
              ,#####''   ,,,,##########,,,,          '''####'''          '####       
            ,##' ,,,,###########################,,,                        '##       
           ' ,,###''''                  '''############,,,                           
         ,,##''                                '''############,,,,        ,,,,,,###''
      ,#''                                            '''#######################'''  
     '                                                          ''''####''''         
             ,#######,   #######,   ,#######,      ##                                
            ,#'     '#,  ##    ##  ,#'     '#,    #''#        ######   ,####,        
            ##       ##  ##   ,#'  ##            #'  '#       #        #'  '#        
            ##       ##  #######   ##           ,######,      #####,   #    #        
            '#,     ,#'  ##    ##  '#,     ,#' ,#      #,         ##   #,  ,#        
             '#######'   ##     ##  '#######'  #'      '#     #####' # '####'        



                  #######################################################
                  #                        -***-                        #
                  #          Department of theory and spectroscopy      #
                  #    Directorship and core code : Frank Neese         #
                  #        Max Planck Institute fuer Kohlenforschung    #
                  #                Kaiser Wilhelm Platz 1               #
                  #                 D-45470 Muelheim/Ruhr               #
                  #                      Germany                        #
                  #                                                     #
                  #                  All rights reserved                #
                  #                        -***-                        #
                  #######################################################


                         Program Version 5.0.3 -  RELEASE  -


 With contributions from (in alphabetic order):
   Daniel Aravena         : Magnetic Suceptibility
   Michael Atanasov       : Ab Initio Ligand Field Theory (pilot matlab implementation)
   Alexander A. Auer      : GIAO ZORA, VPT2 properties, NMR spectrum
   Ute Becker             : Parallelization
   Giovanni Bistoni       : ED, misc. LED, open-shell LED, HFLD
   Martin Brehm           : Molecular dynamics
   Dmytro Bykov           : SCF Hessian
   Vijay G. Chilkuri      : MRCI spin determinant printing, contributions to CSF-ICE
   Dipayan Datta          : RHF DLPNO-CCSD density
   Achintya Kumar Dutta   : EOM-CC, STEOM-CC
   Dmitry Ganyushin       : Spin-Orbit,Spin-Spin,Magnetic field MRCI
   Miquel Garcia          : C-PCM and meta-GGA Hessian, CC/C-PCM, Gaussian charge scheme
   Yang Guo               : DLPNO-NEVPT2, F12-NEVPT2, CIM, IAO-localization
   Andreas Hansen         : Spin unrestricted coupled pair/coupled cluster methods
   Benjamin Helmich-Paris : MC-RPA, TRAH-SCF, COSX integrals
   Lee Huntington         : MR-EOM, pCC
   Robert Izsak           : Overlap fitted RIJCOSX, COSX-SCS-MP3, EOM
   Marcus Kettner         : VPT2
   Christian Kollmar      : KDIIS, OOCD, Brueckner-CCSD(T), CCSD density, CASPT2, CASPT2-K
   Simone Kossmann        : Meta GGA functionals, TD-DFT gradient, OOMP2, MP2 Hessian
   Martin Krupicka        : Initial AUTO-CI
   Lucas Lang             : DCDCAS
   Marvin Lechner         : AUTO-CI (C++ implementation), FIC-MRCC
   Dagmar Lenk            : GEPOL surface, SMD
   Dimitrios Liakos       : Extrapolation schemes; Compound Job, initial MDCI parallelization
   Dimitrios Manganas     : Further ROCIS development; embedding schemes
   Dimitrios Pantazis     : SARC Basis sets
   Anastasios Papadopoulos: AUTO-CI, single reference methods and gradients
   Taras Petrenko         : DFT Hessian,TD-DFT gradient, ASA, ECA, R-Raman, ABS, FL, XAS/XES, NRVS
   Peter Pinski           : DLPNO-MP2, DLPNO-MP2 Gradient
   Christoph Reimann      : Effective Core Potentials
   Marius Retegan         : Local ZFS, SOC
   Christoph Riplinger    : Optimizer, TS searches, QM/MM, DLPNO-CCSD(T), (RO)-DLPNO pert. Triples
   Tobias Risthaus        : Range-separated hybrids, TD-DFT gradient, RPA, STAB
   Michael Roemelt        : Original ROCIS implementation
   Masaaki Saitow         : Open-shell DLPNO-CCSD energy and density
   Barbara Sandhoefer     : DKH picture change effects
   Avijit Sen             : IP-ROCIS
   Kantharuban Sivalingam : CASSCF convergence, NEVPT2, FIC-MRCI
   Bernardo de Souza      : ESD, SOC TD-DFT
   Georgi Stoychev        : AutoAux, RI-MP2 NMR, DLPNO-MP2 response
   Willem Van den Heuvel  : Paramagnetic NMR
   Boris Wezisla          : Elementary symmetry handling
   Frank Wennmohs         : Technical directorship


 We gratefully acknowledge several colleagues who have allowed us to
 interface, adapt or use parts of their codes:
   Stefan Grimme, W. Hujo, H. Kruse, P. Pracht,  : VdW corrections, initial TS optimization,
                  C. Bannwarth, S. Ehlert          DFT functionals, gCP, sTDA/sTD-DF
   Ed Valeev, F. Pavosevic, A. Kumar             : LibInt (2-el integral package), F12 methods
   Garnet Chan, S. Sharma, J. Yang, R. Olivares  : DMRG
   Ulf Ekstrom                                   : XCFun DFT Library
   Mihaly Kallay                                 : mrcc  (arbitrary order and MRCC methods)
   Jiri Pittner, Ondrej Demel                    : Mk-CCSD
   Frank Weinhold                                : gennbo (NPA and NBO analysis)
   Christopher J. Cramer and Donald G. Truhlar   : smd solvation model
   Lars Goerigk                                  : TD-DFT with DH, B97 family of functionals
   V. Asgeirsson, H. Jonsson                     : NEB implementation
   FAccTs GmbH                                   : IRC, NEB, NEB-TS, DLPNO-Multilevel, CI-OPT
                                                   MM, QMMM, 2- and 3-layer-ONIOM, Crystal-QMMM,
                                                   LR-CPCM, SF, NACMEs, symmetry and pop. for TD-DFT,
                                                   nearIR, NL-DFT gradient (VV10), updates on ESD,
                                                   ML-optimized integration grids
   S Lehtola, MJT Oliveira, MAL Marques          : LibXC Library
   Liviu Ungur et al                             : ANISO software


 Your calculation uses the libint2 library for the computation of 2-el integrals
 For citations please refer to: http://libint.valeyev.net

 Your ORCA version has been built with support for libXC version: 5.1.0
 For citations please refer to: https://tddft.org/programs/libxc/

 This ORCA versions uses:
   CBLAS   interface :  Fast vector & matrix operations
   LAPACKE interface :  Fast linear algebra routines
   SCALAPACK package :  Parallel linear algebra routines
   Shared memory     :  Shared parallel matrices
   BLAS/LAPACK       :  OpenBLAS 0.3.15  USE64BITINT DYNAMIC_ARCH NO_AFFINITY SkylakeX SINGLE_THREADED
        Core in use  :  SkylakeX
   Copyright (c) 2011-2014, The OpenBLAS Project




***************************************
The coordinates will be read from file: /home/sk77/PycharmProjects/omg_database_publication/run_calculation/calculation_results/pareto_greedy/0/reaction_10005258/opt_n_1/conformer_7/geometry.xtbopt.xyz
***************************************


Your calculation utilizes the atom-pairwise dispersion correction
with the Becke-Johnson damping scheme (D3BJ)
Cite in your paper:
S.Grimme, S.Ehrlich, L.Goerigk, J Comput Chem, (2011), 32, 1456–1465 
S.Grimme, J.Antony, S.Ehrlich and H.Krieg, J.Chem.Phys., 132, (2010), 154104 
   

================================================================================

----- Orbital basis set information -----
Your calculation utilizes the basis: def2-SVP
   F. Weigend and R. Ahlrichs, Phys. Chem. Chem. Phys. 7, 3297 (2005).

----- AuxJ basis set information -----
Your calculation utilizes the auxiliary basis: def2/J
   F. Weigend, Phys. Chem. Chem. Phys. 8, 1057 (2006).

================================================================================
                                        WARNINGS
                       Please study these warnings very carefully!
================================================================================

INFO   : Checking CIS options ...

WARNING: CIS/ROCIS methods need fully converged wavefunctions
  ===> : Setting SCFConvForced true
         You can overwrite this default with %scf ConvForced false 


INFO   : the flag for use of the SHARK integral package has been found!



***************************************
The coordinates will be read from file: /home/sk77/PycharmProjects/omg_database_publication/run_calculation/calculation_results/pareto_greedy/0/reaction_10005258/opt_n_1/conformer_7/geometry.xtbopt.xyz
***************************************


Your calculation utilizes the atom-pairwise dispersion correction
with the Becke-Johnson damping scheme (D3BJ)
Cite in your paper:
S.Grimme, S.Ehrlich, L.Goerigk, J Comput Chem, (2011), 32, 1456–1465 
S.Grimme, J.Antony, S.Ehrlich and H.Krieg, J.Chem.Phys., 132, (2010), 154104 
   

================================================================================

----- Orbital basis set information -----
Your calculation utilizes the basis: def2-SVP
   F. Weigend and R. Ahlrichs, Phys. Chem. Chem. Phys. 7, 3297 (2005).

----- AuxJ basis set information -----
Your calculation utilizes the auxiliary basis: def2/J
   F. Weigend, Phys. Chem. Chem. Phys. 8, 1057 (2006).

================================================================================
                                        WARNINGS
                       Please study these warnings very carefully!
================================================================================


INFO   : the flag for use of the SHARK integral package has been found!

================================================================================
                                       INPUT FILE
================================================================================
NAME = /home/sk77/PycharmProjects/omg_database_publication/run_calculation/calculation_results/pareto_greedy/0/reaction_10005258/opt_n_1/conformer_7/property.inp
|  1> ! revPBE def2-SVP def2/J CPCMC(Toluene) Hirshfeld CHELPG RIJONX D3 Energy
|  2> %pal
|  3> nprocs 1
|  4> end
|  5> %maxcore 3000
|  6> %elprop
|  7> Polar 1
|  8> Quadrupole True
|  9> end
| 10> %TDDFT
| 11> NRoots 15
| 12> Triplets True
| 13> end
| 14> * xyzfile 0 1 /home/sk77/PycharmProjects/omg_database_publication/run_calculation/calculation_results/pareto_greedy/0/reaction_10005258/opt_n_1/conformer_7/geometry.xtbopt.xyz
| 15> 
| 16> # for cosmo solvent -> Flory Huggins
| 17> $new_job
| 18> ! revPBE def2-SVP def2/J CPCMC Hirshfeld CHELPG RIJONX D3 Energy
| 19> %base "/home/sk77/PycharmProjects/omg_database_publication/run_calculation/calculation_results/pareto_greedy/0/reaction_10005258/opt_n_1/conformer_7/property_cosmo"
| 20> %pal
| 21> nprocs 1
| 22> end
| 23> %maxcore 3000
| 24> * xyzfile 0 1 /home/sk77/PycharmProjects/omg_database_publication/run_calculation/calculation_results/pareto_greedy/0/reaction_10005258/opt_n_1/conformer_7/geometry.xtbopt.xyz
| 25> 
| 26>                          ****END OF INPUT****
================================================================================


                 $$$$$$$$$$$$$$$$$$$$$$$$$$$$$$$$$$$$$$$$$$$$$$ 
                 $ THERE ARE  2 JOBS TO BE PROCESSED THIS RUN $
                 $$$$$$$$$$$$$$$$$$$$$$$$$$$$$$$$$$$$$$$$$$$$$$ 




                 $$$$$$$$$$$$$$$$  JOB NUMBER  1 $$$$$$$$$$$$$$


                       ****************************
                       * Single Point Calculation *
                       ****************************

---------------------------------
CARTESIAN COORDINATES (ANGSTROEM)
---------------------------------
  H      3.863526   -1.037703   -0.786515
  C      3.457957   -1.987584   -0.484836
  C      2.147180   -2.017442   -0.020730
  O      1.530177   -0.782338   -0.022610
  C      0.310248   -0.498307    0.449012
  O     -0.445649   -1.288039    0.973245
  C     -0.023244    0.936093    0.254067
  C      0.853710    1.825312   -0.352630
  H      1.813326    1.497214   -0.716472
  C      0.504917    3.169756   -0.480331
  C      1.498489    4.088314   -1.110718
  O      2.556544    3.660889   -1.535691
  C      1.140960    5.543269   -1.194958
  H      0.250528    5.668011   -1.805904
  H      0.939267    5.934609   -0.201589
  H      1.965633    6.090772   -1.642697
  C     -0.734451    3.601456   -0.021570
  H     -1.021729    4.636146   -0.106325
  C     -1.638019    2.707471    0.561235
  N     -2.847790    3.222589    1.013852
  H     -2.844769    4.210395    1.235451
  C     -4.042064    2.621362    1.274569
  S     -5.158336    3.502296    2.164572
  N     -4.276284    1.402779    0.793327
  H     -3.613745    1.015926    0.134663
  C     -5.512677    0.668177    0.930891
  H     -5.280523   -0.323692    1.327780
  H     -6.136937    1.200860    1.650007
  C     -6.230673    0.539493   -0.409274
  H     -6.472686    1.524230   -0.801018
  H     -5.603406    0.015989   -1.126154
  H     -7.152092   -0.017852   -0.275302
  C     -1.262248    1.375318    0.718047
  H     -1.885655    0.662585    1.233806
  C      1.546949   -3.203907    0.383057
  H      0.532249   -3.202688    0.740181
  C      2.306434   -4.361447    0.310497
  O      1.815762   -5.629723    0.697751
  C      0.546288   -5.802494    0.968276
  F     -0.297444   -5.428262   -0.012584
  F      0.319481   -7.100331    1.178567
  F      0.108423   -5.168052    2.074272
  C      3.608422   -4.363135   -0.142379
  H      4.166188   -5.281669   -0.185391
  C      4.200274   -3.162700   -0.549411
  O      5.470967   -3.246764   -0.982358
  C      6.119932   -2.067484   -1.435974
  H      5.597032   -1.637685   -2.292609
  H      6.193593   -1.327970   -0.636432
  H      7.115975   -2.384064   -1.734618

----------------------------
CARTESIAN COORDINATES (A.U.)
----------------------------
  NO LB      ZA    FRAG     MASS         X           Y           Z
   0 H     1.0000    0     1.008    7.301007   -1.960975   -1.486298
   1 C     6.0000    0    12.011    6.534592   -3.755990   -0.916207
   2 C     6.0000    0    12.011    4.057582   -3.812413   -0.039175
   3 O     8.0000    0    15.999    2.891616   -1.478405   -0.042727
   4 C     6.0000    0    12.011    0.586283   -0.941664    0.848509
   5 O     8.0000    0    15.999   -0.842155   -2.434040    1.839166
   6 C     6.0000    0    12.011   -0.043924    1.768959    0.480117
   7 C     6.0000    0    12.011    1.613277    3.449340   -0.666374
   8 H     1.0000    0     1.008    3.426689    2.829324   -1.353935
   9 C     6.0000    0    12.011    0.954155    5.989972   -0.907695
  10 C     6.0000    0    12.011    2.831734    7.725794   -2.098952
  11 O     8.0000    0    15.999    4.831167    6.918077   -2.902036
  12 C     6.0000    0    12.011    2.156103   10.475260   -2.258143
  13 H     1.0000    0     1.008    0.473429   10.710989   -3.412664
  14 H     1.0000    0     1.008    1.774958   11.214786   -0.380947
  15 H     1.0000    0     1.008    3.714509   11.509892   -3.104248
  16 C     6.0000    0    12.011   -1.387911    6.805765   -0.040762
  17 H     1.0000    0     1.008   -1.930787    8.761046   -0.200925
  18 C     6.0000    0    12.011   -3.095408    5.116379    1.060580
  19 N     7.0000    0    14.007   -5.381542    6.089811    1.915903
  20 H     1.0000    0     1.008   -5.375834    7.956494    2.334664
  21 C     6.0000    0    12.011   -7.638394    4.953656    2.408585
  22 S    16.0000    0    32.060   -9.747842    6.618381    4.090448
  23 N     7.0000    0    14.007   -8.081005    2.650868    1.499170
  24 H     1.0000    0     1.008   -6.828989    1.919822    0.254475
  25 C     6.0000    0    12.011  -10.417450    1.262671    1.759128
  26 H     1.0000    0     1.008   -9.978743   -0.611689    2.509140
  27 H     1.0000    0     1.008  -11.597131    2.269297    3.118061
  28 C     6.0000    0    12.011  -11.774265    1.019495   -0.773416
  29 H     1.0000    0     1.008  -12.231604    2.880376   -1.513704
  30 H     1.0000    0     1.008  -10.588903    0.030214   -2.128122
  31 H     1.0000    0     1.008  -13.515496   -0.033736   -0.520245
  32 C     6.0000    0    12.011   -2.385303    2.598975    1.356911
  33 H     1.0000    0     1.008   -3.563372    1.252105    2.331556
  34 C     6.0000    0    12.011    2.923310   -6.054506    0.723873
  35 H     1.0000    0     1.008    1.005804   -6.052202    1.398739
  36 C     6.0000    0    12.011    4.358528   -8.241941    0.586753
  37 O     8.0000    0    15.999    3.431293  -10.638636    1.318558
  38 C     6.0000    0    12.011    1.032335  -10.965124    1.829776
  39 F     9.0000    0    18.998   -0.562087  -10.257928   -0.023780
  40 F     9.0000    0    18.998    0.603731  -13.417681    2.227169
  41 F     9.0000    0    18.998    0.204889   -9.766203    3.919806
  42 C     6.0000    0    12.011    6.818929   -8.245131   -0.269057
  43 H     1.0000    0     1.008    7.872954   -9.980908   -0.350338
  44 C     6.0000    0    12.011    7.937368   -5.976637   -1.038237
  45 O     8.0000    0    15.999   10.338629   -6.135495   -1.856388
  46 C     6.0000    0    12.011   11.564996   -3.906978   -2.713597
  47 H     1.0000    0     1.008   10.576857   -3.094777   -4.332404
  48 H     1.0000    0     1.008   11.704194   -2.509500   -1.202683
  49 H     1.0000    0     1.008   13.447244   -4.505228   -3.277953

--------------------------------
INTERNAL COORDINATES (ANGSTROEM)
--------------------------------
 H      0   0   0     0.000000000000     0.00000000     0.00000000
 C      1   0   0     1.075997758949     0.00000000     0.00000000
 C      2   1   0     1.390835290198   117.88742774     0.00000000
 O      3   2   1     1.380643259780   113.67275069     0.43985873
 C      4   3   2     1.338405412811   126.63400319   184.70807529
 O      5   4   3     1.212384578500   125.62101776     1.00687629
 C      5   4   3     1.485504640437   111.30283074   180.93017186
 C      7   5   4     1.388466654422   122.27277228     0.29061160
 H      8   7   5     1.077447388392   121.00140967     0.68634855
 C      8   7   5     1.394809652942   119.95845085   181.63916327
 C     10   8   7     1.492756382931   117.73255417   178.55006118
 O     11  10   8     1.217692275250   120.64551092     2.35805223
 C     11  10   8     1.500605322554   117.49996723   182.42798749
 H     13  11  10     1.087053889819   109.75348073   298.10818473
 H     13  11  10     1.086558654653   110.00556869    57.65136432
 H     13  11  10     1.086423249380   109.32349049   178.10135942
 C     10   8   7     1.390272684573   119.47293233   358.66511619
 H     17  10   8     1.077170442871   120.66737679   179.71291504
 C     17  10   8     1.398322443863   121.00103296   359.76491358
 N     19  17  10     1.390594557117   117.45086011   178.99528062
 H     20  19  17     1.012361571495   115.47361471   336.16046136
 C     20  19  17     1.362254872092   131.41399405   159.53095960
 S     22  20  19     1.677562170776   116.94492995   165.19595169
 N     22  20  19     1.330938557945   119.28593960   343.55285466
 H     24  22  20     1.011162956839   118.06735288   351.12551917
 C     24  22  20     1.444726061074   125.57179104   183.16667651
 H     26  24  22     1.093260886668   108.30969701   231.63521783
 H     26  24  22     1.091137221774   107.70644120   349.35607824
 C     26  24  22     1.525817347524   111.22053809   110.62224827
 H     29  26  24     1.087078034651   110.17446672   299.37612641
 H     29  26  24     1.086939110469   110.38644657    59.92688383
 H     29  26  24     1.085171279079   109.53828450   179.84270485
 C     19  17  10     1.392991710484   118.94762148     2.07503929
 H     33  19  17     1.078254748407   122.00669545   174.83178692
 C      3   2   1     1.389611428663   121.49130469   179.73725569
 H     35   3   2     1.075711933770   120.19488739   179.89546919
 C     35   3   2     1.386355741242   117.45506460     0.20641655
 O     37  35   3     1.413948044700   122.98965638   179.64029170
 C     38  37  35     1.309426152452   120.75500282     9.84404628
 F     39  38  37     1.346855220702   114.84808927    55.09849647
 F     39  38  37     1.334183170795   109.00939194   174.06156302
 F     39  38  37     1.348135833921   114.97866201   292.70395921
 C     37  35   3     1.378503446997   122.38715003   359.92665547
 H     43  37  35     1.075480246753   120.26620340   180.06109550
 C      2   1   3     1.391438999300   122.10344682   179.90622509
 O     45   2   1     1.345053696589   124.86992503     0.00000000
 C     46  45   2     1.420431282707   118.85046452   358.79557569
 H     47  46  45     1.091776485029   111.01335678   299.09174038
 H     47  46  45     1.091592070128   111.06143727    61.67983267
 H     47  46  45     1.086974534068   105.34298785   180.35323501

---------------------------
INTERNAL COORDINATES (A.U.)
---------------------------
 H      0   0   0     0.000000000000     0.00000000     0.00000000
 C      1   0   0     2.033341085127     0.00000000     0.00000000
 C      2   1   0     2.628297795867   117.88742774     0.00000000
 O      3   2   1     2.609037649628   113.67275069     0.43985873
 C      4   3   2     2.529219686370   126.63400319   184.70807529
 O      5   4   3     2.291074822354   125.62101776     1.00687629
 C      5   4   3     2.807196941095   111.30283074   180.93017186
 C      7   5   4     2.623821722939   122.27277228     0.29061160
 H      8   7   5     2.036080487770   121.00140967     0.68634855
 C      8   7   5     2.635808253010   119.95845085   181.63916327
 C     10   8   7     2.820900748403   117.73255417   178.55006118
 O     11  10   8     2.301104915615   120.64551092     2.35805223
 C     11  10   8     2.835733094732   117.49996723   182.42798749
 H     13  11  10     2.054234144572   109.75348073   298.10818473
 H     13  11  10     2.053298285736   110.00556869    57.65136432
 H     13  11  10     2.053042406853   109.32349049   178.10135942
 C     10   8   7     2.627234625315   119.47293233   358.66511619
 H     17  10   8     2.035557136582   120.66737679   179.71291504
 C     17  10   8     2.642446465816   121.00103296   359.76491358
 N     19  17  10     2.627842876272   117.45086011   178.99528062
 H     20  19  17     1.913086118631   115.47361471   336.16046136
 C     20  19  17     2.574288632855   131.41399405   159.53095960
 S     22  20  19     3.170133075393   116.94492995   165.19595169
 N     22  20  19     2.515109375593   119.28593960   343.55285466
 H     24  22  20     1.910821065191   118.06735288   351.12551917
 C     24  22  20     2.730136593969   125.57179104   183.16667651
 H     26  24  22     2.065963668730   108.30969701   231.63521783
 H     26  24  22     2.061950523680   107.70644120   349.35607824
 C     26  24  22     2.883376917206   111.22053809   110.62224827
 H     29  26  24     2.054279771693   110.17446672   299.37612641
 H     29  26  24     2.054017243035   110.38644657    59.92688383
 H     29  26  24     2.050676525856   109.53828450   179.84270485
 C     19  17  10     2.632372839638   118.94762148     2.07503929
 H     33  19  17     2.037606177090   122.00669545   174.83178692
 C      3   2   1     2.625985032740   121.49130469   179.73725569
 H     35   3   2     2.032800953816   120.19488739   179.89546919
 C     35   3   2     2.619832675136   117.45506460     0.20641655
 O     37  35   3     2.671974572077   122.98965638   179.64029170
 C     38  37  35     2.474456820728   120.75500282     9.84404628
 F     39  38  37     2.545187509169   114.84808927    55.09849647
 F     39  38  37     2.521240805290   109.00939194   174.06156302
 F     39  38  37     2.547607517436   114.97866201   292.70395921
 C     37  35   3     2.604993989492   122.38715003   359.92665547
 H     43  37  35     2.032363128805   120.26620340   180.06109550
 C      2   1   3     2.629438640734   122.10344682   179.90622509
 O     45   2   1     2.541783121972   124.86992503     0.00000000
 C     46  45   2     2.684226116371   118.85046452   358.79557569
 H     47  46  45     2.063158556160   111.01335678   299.09174038
 H     47  46  45     2.062810062502   111.06143727    61.67983267
 H     47  46  45     2.054084183935   105.34298785   180.35323501

---------------------
BASIS SET INFORMATION
---------------------
There are 6 groups of distinct atoms

 Group   1 Type H   : 4s1p contracted to 2s1p pattern {31/1}
 Group   2 Type C   : 7s4p1d contracted to 3s2p1d pattern {511/31/1}
 Group   3 Type O   : 7s4p1d contracted to 3s2p1d pattern {511/31/1}
 Group   4 Type N   : 7s4p1d contracted to 3s2p1d pattern {511/31/1}
 Group   5 Type S   : 10s7p1d contracted to 4s3p1d pattern {5311/511/1}
 Group   6 Type F   : 7s4p1d contracted to 3s2p1d pattern {511/31/1}

Atom   0H    basis set group =>   1
Atom   1C    basis set group =>   2
Atom   2C    basis set group =>   2
Atom   3O    basis set group =>   3
Atom   4C    basis set group =>   2
Atom   5O    basis set group =>   3
Atom   6C    basis set group =>   2
Atom   7C    basis set group =>   2
Atom   8H    basis set group =>   1
Atom   9C    basis set group =>   2
Atom  10C    basis set group =>   2
Atom  11O    basis set group =>   3
Atom  12C    basis set group =>   2
Atom  13H    basis set group =>   1
Atom  14H    basis set group =>   1
Atom  15H    basis set group =>   1
Atom  16C    basis set group =>   2
Atom  17H    basis set group =>   1
Atom  18C    basis set group =>   2
Atom  19N    basis set group =>   4
Atom  20H    basis set group =>   1
Atom  21C    basis set group =>   2
Atom  22S    basis set group =>   5
Atom  23N    basis set group =>   4
Atom  24H    basis set group =>   1
Atom  25C    basis set group =>   2
Atom  26H    basis set group =>   1
Atom  27H    basis set group =>   1
Atom  28C    basis set group =>   2
Atom  29H    basis set group =>   1
Atom  30H    basis set group =>   1
Atom  31H    basis set group =>   1
Atom  32C    basis set group =>   2
Atom  33H    basis set group =>   1
Atom  34C    basis set group =>   2
Atom  35H    basis set group =>   1
Atom  36C    basis set group =>   2
Atom  37O    basis set group =>   3
Atom  38C    basis set group =>   2
Atom  39F    basis set group =>   6
Atom  40F    basis set group =>   6
Atom  41F    basis set group =>   6
Atom  42C    basis set group =>   2
Atom  43H    basis set group =>   1
Atom  44C    basis set group =>   2
Atom  45O    basis set group =>   3
Atom  46C    basis set group =>   2
Atom  47H    basis set group =>   1
Atom  48H    basis set group =>   1
Atom  49H    basis set group =>   1
---------------------------------
AUXILIARY/J BASIS SET INFORMATION
---------------------------------
There are 6 groups of distinct atoms

 Group   1 Type H   : 5s2p1d contracted to 3s1p1d pattern {311/2/1}
 Group   2 Type C   : 12s5p4d2f1g contracted to 6s4p3d1f1g pattern {711111/2111/211/2/1}
 Group   3 Type O   : 12s5p4d2f1g contracted to 6s4p3d1f1g pattern {711111/2111/211/2/1}
 Group   4 Type N   : 12s5p4d2f1g contracted to 6s4p3d1f1g pattern {711111/2111/211/2/1}
 Group   5 Type S   : 14s5p5d2f1g contracted to 8s4p3d1f1g pattern {71111111/2111/311/2/1}
 Group   6 Type F   : 12s5p4d2f1g contracted to 6s4p3d1f1g pattern {711111/2111/211/2/1}

Atom   0H    basis set group =>   1
Atom   1C    basis set group =>   2
Atom   2C    basis set group =>   2
Atom   3O    basis set group =>   3
Atom   4C    basis set group =>   2
Atom   5O    basis set group =>   3
Atom   6C    basis set group =>   2
Atom   7C    basis set group =>   2
Atom   8H    basis set group =>   1
Atom   9C    basis set group =>   2
Atom  10C    basis set group =>   2
Atom  11O    basis set group =>   3
Atom  12C    basis set group =>   2
Atom  13H    basis set group =>   1
Atom  14H    basis set group =>   1
Atom  15H    basis set group =>   1
Atom  16C    basis set group =>   2
Atom  17H    basis set group =>   1
Atom  18C    basis set group =>   2
Atom  19N    basis set group =>   4
Atom  20H    basis set group =>   1
Atom  21C    basis set group =>   2
Atom  22S    basis set group =>   5
Atom  23N    basis set group =>   4
Atom  24H    basis set group =>   1
Atom  25C    basis set group =>   2
Atom  26H    basis set group =>   1
Atom  27H    basis set group =>   1
Atom  28C    basis set group =>   2
Atom  29H    basis set group =>   1
Atom  30H    basis set group =>   1
Atom  31H    basis set group =>   1
Atom  32C    basis set group =>   2
Atom  33H    basis set group =>   1
Atom  34C    basis set group =>   2
Atom  35H    basis set group =>   1
Atom  36C    basis set group =>   2
Atom  37O    basis set group =>   3
Atom  38C    basis set group =>   2
Atom  39F    basis set group =>   6
Atom  40F    basis set group =>   6
Atom  41F    basis set group =>   6
Atom  42C    basis set group =>   2
Atom  43H    basis set group =>   1
Atom  44C    basis set group =>   2
Atom  45O    basis set group =>   3
Atom  46C    basis set group =>   2
Atom  47H    basis set group =>   1
Atom  48H    basis set group =>   1
Atom  49H    basis set group =>   1
------------------------------------------------------------------------------
                           ORCA GTO INTEGRAL CALCULATION
                           -- RI-GTO INTEGRALS CHOSEN --
------------------------------------------------------------------------------
------------------------------------------------------------------------------
                   ___                                                        
                  /   \      - P O W E R E D   B Y -                         
                 /     \                                                     
                 |  |  |   _    _      __       _____    __    __             
                 |  |  |  | |  | |    /  \     |  _  \  |  |  /  |          
                  \  \/   | |  | |   /    \    | | | |  |  | /  /          
                 / \  \   | |__| |  /  /\  \   | |_| |  |  |/  /          
                |  |  |   |  __  | /  /__\  \  |    /   |      \           
                |  |  |   | |  | | |   __   |  |    \   |  |\   \          
                \     /   | |  | | |  |  |  |  | |\  \  |  | \   \       
                 \___/    |_|  |_| |__|  |__|  |_| \__\ |__|  \__/        
                                                                              
                      - O R C A' S   B I G   F R I E N D -                    
                                      &                                       
                       - I N T E G R A L  F E E D E R -                       
                                                                              
 v1 FN, 2020, v2 2021                                                         
------------------------------------------------------------------------------


Reading SHARK input file /home/sk77/PycharmProjects/omg_database_publication/run_calculation/calculation_results/pareto_greedy/0/reaction_10005258/opt_n_1/conformer_7/property.SHARKINP.tmp ... ok
----------------------
SHARK INTEGRAL PACKAGE
----------------------

Number of atoms                             ...     50
Number of basis functions                   ...    533
Number of shells                            ...    245
Maximum angular momentum                    ...      2
Integral batch strategy                     ... SHARK/LIBINT Hybrid
RI-J (if used) integral strategy            ... SPLIT-RIJ (Revised 2003 algorithm where possible)
Printlevel                                  ...      1
Contraction scheme used                     ... SEGMENTED contraction
Coulomb Range Separation                    ... NOT USED
Exchange Range Separation                   ... NOT USED
Finite Nucleus Model                        ... NOT USED
Auxiliary Coulomb fitting basis             ... AVAILABLE
   # of basis functions in Aux-J            ...   1730
   # of shells in Aux-J                     ...    562
   Maximum angular momentum in Aux-J        ...      4
Auxiliary J/K fitting basis                 ... NOT available
Auxiliary Correlation fitting basis         ... NOT available
Auxiliary 'external' fitting basis          ... NOT available
Integral threshold                          ...     1.000000e-10
Primitive cut-off                           ...     1.000000e-11
Primitive pair pre-selection threshold      ...     1.000000e-11

Calculating pre-screening integrals         ... done (  0.1 sec) Dimension = 245
Organizing shell pair data                  ... done (  0.6 sec)
Shell pair information
Total number of shell pairs                 ...     30135
Shell pairs after pre-screening             ...     15452
Total number of primitive shell pairs       ...    112571
Primitive shell pairs kept                  ...     35407
          la=0 lb=0:   4628 shell pairs
          la=1 lb=0:   5769 shell pairs
          la=1 lb=1:   1852 shell pairs
          la=2 lb=0:   1855 shell pairs
          la=2 lb=1:   1162 shell pairs
          la=2 lb=2:    186 shell pairs

Calculating one electron integrals          ... done (  0.2 sec)
Calculating RI/J V-Matrix + Cholesky decomp.... done (  1.9 sec)
Calculating Nuclear repulsion               ... done (  0.2 sec) ENN=   3135.517146392051 Eh

SHARK setup successfully completed in   5.2 seconds

Maximum memory used throughout the entire GTOINT-calculation: 98.5 MB
-------------------------------------------------------------------------------
                                 ORCA SCF
-------------------------------------------------------------------------------

------------
SCF SETTINGS
------------
Hamiltonian:
 Density Functional     Method          .... DFT(GTOs)
 Exchange Functional    Exchange        .... PBE
   PBE kappa parameter   XKappa         ....  1.245000
   PBE mue parameter    XMuePBE         ....  0.219520
 Correlation Functional Correlation     .... PBE
   PBE beta parameter  CBetaPBE         ....  0.066725
 LDA part of GGA corr.  LDAOpt          .... PW91-LDA
 Gradients option       PostSCFGGA      .... off
   Density functional embedding theory  .... OFF
   NL short-range parameter             ....  3.700000
 RI-approximation to the Coulomb term is turned on
   Number of AuxJ basis functions       .... 1730


General Settings:
 Integral files         IntName         .... /home/sk77/PycharmProjects/omg_database_publication/run_calculation/calculation_results/pareto_greedy/0/reaction_10005258/opt_n_1/conformer_7/property
 Hartree-Fock type      HFTyp           .... RHF
 Total Charge           Charge          ....    0
 Multiplicity           Mult            ....    1
 Number of Electrons    NEL             ....  236
 Basis Dimension        Dim             ....  533
 Nuclear Repulsion      ENuc            ....   3135.5171463921 Eh

Convergence Acceleration:
 DIIS                   CNVDIIS         .... on
   Start iteration      DIISMaxIt       ....    12
   Startup error        DIISStart       ....  0.200000
   # of expansion vecs  DIISMaxEq       ....     5
   Bias factor          DIISBfac        ....   1.050
   Max. coefficient     DIISMaxC        ....  10.000
 Trust-Rad. Augm. Hess. CNVTRAH         .... auto
   Auto Start mean grad. ratio tolernc. ....  1.125000
   Auto Start start iteration           ....    20
   Auto Start num. interpolation iter.  ....    10
   Max. Number of Micro iterations      ....    16
   Max. Number of Macro iterations      .... Maxiter - #DIIS iter
   Number of Davidson start vectors     ....     2
   Converg. threshold I  (grad. norm)   ....   5.000e-05
   Converg. threshold II (energy diff.) ....   1.000e-06
   Grad. Scal. Fac. for Micro threshold ....   0.100
   Minimum threshold for Micro iter.    ....   0.010
   NR start threshold (gradient norm)   ....   0.001
   Initial trust radius                 ....   0.400
   Minimum AH scaling param. (alpha)    ....   1.000
   Maximum AH scaling param. (alpha)    .... 1000.000
   Orbital update algorithm             .... Taylor
   White noise on init. David. guess    .... on
   Maximum white noise                  ....   0.010
   Quad. conv. algorithm                .... NR
   COSX micro iterations for RIJONX calc.... off
 SOSCF                  CNVSOSCF        .... on
   Start iteration      SOSCFMaxIt      ....   150
   Startup grad/error   SOSCFStart      ....  0.003300
 Level Shifting         CNVShift        .... on
   Level shift para.    LevelShift      ....    0.2500
   Turn off err/grad.   ShiftErr        ....    0.0010
 Zerner damping         CNVZerner       .... off
 Static damping         CNVDamp         .... on
   Fraction old density DampFac         ....    0.7000
   Max. Damping (<1)    DampMax         ....    0.9800
   Min. Damping (>=0)   DampMin         ....    0.0000
   Turn off err/grad.   DampErr         ....    0.1000
 Fernandez-Rico         CNVRico         .... off

SCF Procedure:
 Maximum # iterations   MaxIter         ....   125
 SCF integral mode      SCFMode         .... Direct
   Integral package                     .... SHARK and LIBINT hybrid scheme
 Reset frequency        DirectResetFreq ....    20
 Integral Threshold     Thresh          ....  1.000e-10 Eh
 Primitive CutOff       TCut            ....  1.000e-11 Eh

Convergence Tolerance:
 Convergence Check Mode ConvCheckMode   .... Total+1el-Energy
 Convergence forced     ConvForced      .... 1
 Energy Change          TolE            ....  1.000e-06 Eh
 1-El. energy change                    ....  1.000e-03 Eh
 Orbital Gradient       TolG            ....  5.000e-05
 Orbital Rotation angle TolX            ....  5.000e-05
 DIIS Error             TolErr          ....  1.000e-06


Diagonalization of the overlap matrix:
Smallest eigenvalue                        ... 2.168e-04
Time for diagonalization                   ...    0.048 sec
Threshold for overlap eigenvalues          ... 1.000e-08
Number of eigenvalues below threshold      ... 0
Time for construction of square roots      ...    0.917 sec
Total time needed                          ...    0.967 sec

Time for model grid setup =    2.591 sec

------------------------------
INITIAL GUESS: MODEL POTENTIAL
------------------------------
Loading Hartree-Fock densities                     ... done
Calculating cut-offs                               ... done
Initializing the effective Hamiltonian             ... done
Setting up the integral package (SHARK)            ... done
Starting the Coulomb interaction                   ... done (   2.3 sec)
Reading the grid                                   ... done
Mapping shells                                     ... done
Starting the XC term evaluation                    ... done (   1.0 sec)
  promolecular density results
     # of electrons  =    235.995444928
     EX              =   -218.177596318
     EC              =     -8.116254374
     EX+EC           =   -226.293850693
Transforming the Hamiltonian                       ... done (   0.1 sec)
Diagonalizing the Hamiltonian                      ... done (   0.1 sec)
Back transforming the eigenvectors                 ... done (   0.0 sec)
Now organizing SCF variables                       ... done
                      ------------------
                      INITIAL GUESS DONE (   6.4 sec)
                      ------------------
-------------------
DFT GRID GENERATION
-------------------

General Integration Accuracy     IntAcc      ... 4.388
Radial Grid Type                 RadialGrid  ... OptM3 with GC (2021)
Angular Grid (max. ang.)         AngularGrid ... 4 (Lebedev-302)
Angular grid pruning method      GridPruning ... 4 (adaptive)
Weight generation scheme         WeightScheme... Becke
Basis function cutoff            BFCut       ... 1.0000e-10
Integration weight cutoff        WCut        ... 1.0000e-14
Angular grids for H and He will be reduced by one unit
Partially contracted basis set               ... off
Rotationally invariant grid construction     ... off

Total number of grid points                  ...   247916
Total number of batches                      ...     3896
Average number of points per batch           ...       63
Average number of grid points per atom       ...     4958
Time for grid setup =    6.378 sec


--------------------
CPCM SOLVATION MODEL
--------------------
CPCM parameters:
  Epsilon                                         ...       2.4000
  Refrac                                          ...       1.4970
  Rsolv                                           ...       1.3000
  Surface type                                    ... GAUSSIAN VDW
  Epsilon function type                           ...        COSMO
Radii:
 Radius for H  used is    2.4944 Bohr (=   1.3200 Ang.)
 Radius for C  used is    3.8550 Bohr (=   2.0400 Ang.)
 Radius for O  used is    3.4469 Bohr (=   1.8240 Ang.)
 Radius for N  used is    3.5149 Bohr (=   1.8600 Ang.)
 Radius for S  used is    4.0818 Bohr (=   2.1600 Ang.)
 Radius for F  used is    3.3335 Bohr (=   1.7640 Ang.)
Calculating surface                               ...        done! (  0.0s)
GEPOL surface points                              ...         2670
GEPOL Volume                                      ...    3280.8002
GEPOL Surface-area                                ...    1695.5839
Calculating surface distance matrix               ...        done! (  0.1s)
Performing Cholesky decomposition & store         ...        done! (  3.8s)
Overall time for CPCM initialization              ...                 3.9s
--------------
SCF ITERATIONS
--------------
ITER       Energy         Delta-E        Max-DP      RMS-DP      [F,P]     Damp
               ***  Starting incremental Fock matrix formation  ***
  0  -1954.5774536705   0.000000000000 0.12773562  0.00152211  0.2314698 0.7000
  1  -1954.8655943138  -0.288140643287 0.07754553  0.00094998  0.0751510 0.7000
                               ***Turning on DIIS***
  2  -1954.9578843175  -0.092290003783 0.09336743  0.00137689  0.0283283 0.0000
  3  -1955.1225841107  -0.164699793111 0.04669405  0.00064599  0.0454952 0.0000
  4  -1955.1542182873  -0.031634176617 0.01607337  0.00023804  0.0240568 0.0000
  5  -1955.1582837684  -0.004065481119 0.00559624  0.00007960  0.0059668 0.0000
                      *** Initiating the SOSCF procedure ***
                           *** Shutting down DIIS ***
                      *** Re-Reading the Fockian *** 
                      *** Removing any level shift *** 
ITER      Energy       Delta-E        Grad      Rot      Max-DP    RMS-DP
  6  -1955.15848990  -0.0002061322  0.000428  0.000428  0.001764  0.000028
               *** Restarting incremental Fock matrix formation ***
  7  -1955.15851740  -0.0000275036  0.000217  0.001228  0.001183  0.000019
  8  -1955.15851224   0.0000051670  0.000374  0.000428  0.001012  0.000011
  9  -1955.15852133  -0.0000090949  0.000075  0.000408  0.000779  0.000007
 10  -1955.15851997   0.0000013587  0.000180  0.000252  0.000563  0.000005
 11  -1955.15852176  -0.0000017898  0.000017  0.000096  0.000106  0.000002
                 **** Energy Check signals convergence ****
              ***Rediagonalizing the Fockian in SOSCF/NRSCF***

               *****************************************************
               *                     SUCCESS                       *
               *           SCF CONVERGED AFTER  12 CYCLES          *
               *****************************************************


----------------
TOTAL SCF ENERGY
----------------

Total Energy       :        -1955.15852167 Eh          -53202.56814 eV

Components:
Nuclear Repulsion  :         3135.51714639 Eh           85321.75923 eV
Electronic Energy  :        -5090.67566806 Eh         -138524.32737 eV
One Electron Energy:        -8917.58816161 Eh         -242659.91047 eV
Two Electron Energy:         3826.91249355 Eh          104135.58310 eV
CPCM Dielectric    :           -0.01302093 Eh              -0.35432 eV

Virial components:
Potential Energy   :        -3896.43253760 Eh         -106027.31967 eV
Kinetic Energy     :         1941.27401593 Eh           52824.75153 eV
Virial Ratio       :            2.00715226


DFT components:
N(Alpha)           :      117.999958146670 electrons
N(Beta)            :      117.999958146670 electrons
N(Total)           :      235.999916293339 electrons
E(X)               :     -220.903478975170 Eh       
E(C)               :       -8.133459936693 Eh       
E(XC)              :     -229.036938911863 Eh       
DFET-embed. en.    :        0.000000000000 Eh       
CPCM Solvation Model Properties:
Surface-charge          :           -0.02490768
Charge-correction       :            0.00005169 Eh               0.00141 eV
Free-energy (cav+disp)  :  This term is not implemented in the current solvation scheme

---------------
SCF CONVERGENCE
---------------

  Last Energy change         ...    9.1084e-08  Tolerance :   1.0000e-06
  Last MAX-Density change    ...    7.9346e-05  Tolerance :   1.0000e-05
  Last RMS-Density change    ...    1.3699e-06  Tolerance :   1.0000e-06
  Last Orbital Gradient      ...    4.5757e-05  Tolerance :   5.0000e-05
  Last Orbital Rotation      ...    7.1197e-05  Tolerance :   5.0000e-05

             **** THE GBW FILE WAS UPDATED (/home/sk77/PycharmProjects/omg_database_publication/run_calculation/calculation_results/pareto_greedy/0/reaction_10005258/opt_n_1/conformer_7/property.gbw) ****
             **** DENSITY /home/sk77/PycharmProjects/omg_database_publication/run_calculation/calculation_results/pareto_greedy/0/reaction_10005258/opt_n_1/conformer_7/property.scfp WAS UPDATED ****
             **** ENERGY FILE WAS UPDATED (/home/sk77/PycharmProjects/omg_database_publication/run_calculation/calculation_results/pareto_greedy/0/reaction_10005258/opt_n_1/conformer_7/property.en.tmp) ****
             **** THE GBW FILE WAS UPDATED (/home/sk77/PycharmProjects/omg_database_publication/run_calculation/calculation_results/pareto_greedy/0/reaction_10005258/opt_n_1/conformer_7/property.gbw) ****
             **** DENSITY /home/sk77/PycharmProjects/omg_database_publication/run_calculation/calculation_results/pareto_greedy/0/reaction_10005258/opt_n_1/conformer_7/property.scfp WAS UPDATED ****
----------------
ORBITAL ENERGIES
----------------

  NO   OCC          E(Eh)            E(eV) 
   0   2.0000     -87.985108     -2394.1965 
   1   2.0000     -24.302851      -661.3142 
   2   2.0000     -24.302545      -661.3059 
   3   2.0000     -24.301355      -661.2735 
   4   2.0000     -18.847982      -512.8797 
   5   2.0000     -18.847381      -512.8633 
   6   2.0000     -18.816230      -512.0156 
   7   2.0000     -18.774474      -510.8794 
   8   2.0000     -18.767559      -510.6912 
   9   2.0000     -14.060974      -382.6186 
  10   2.0000     -14.051655      -382.3650 
  11   2.0000     -10.186152      -277.1793 
  12   2.0000     -10.047803      -273.4146 
  13   2.0000     -10.014535      -272.5093 
  14   2.0000      -9.999183      -272.0916 
  15   2.0000      -9.994030      -271.9514 
  16   2.0000      -9.992902      -271.9207 
  17   2.0000      -9.984265      -271.6857 
  18   2.0000      -9.978287      -271.5230 
  19   2.0000      -9.965997      -271.1886 
  20   2.0000      -9.942975      -270.5621 
  21   2.0000      -9.941690      -270.5271 
  22   2.0000      -9.938142      -270.4306 
  23   2.0000      -9.935408      -270.3562 
  24   2.0000      -9.934633      -270.3351 
  25   2.0000      -9.928214      -270.1604 
  26   2.0000      -9.917882      -269.8793 
  27   2.0000      -9.917528      -269.8697 
  28   2.0000      -9.916401      -269.8390 
  29   2.0000      -9.913909      -269.7712 
  30   2.0000      -9.904074      -269.5036 
  31   2.0000      -7.618983      -207.3231 
  32   2.0000      -5.642242      -153.5332 
  33   2.0000      -5.635584      -153.3520 
  34   2.0000      -5.631697      -153.2463 
  35   2.0000      -1.210788       -32.9472 
  36   2.0000      -1.107803       -30.1449 
  37   2.0000      -1.103712       -30.0335 
  38   2.0000      -1.039456       -28.2850 
  39   2.0000      -1.025367       -27.9017 
  40   2.0000      -0.988949       -26.9107 
  41   2.0000      -0.952854       -25.9285 
  42   2.0000      -0.947939       -25.7947 
  43   2.0000      -0.922116       -25.0921 
  44   2.0000      -0.857703       -23.3393 
  45   2.0000      -0.805685       -21.9238 
  46   2.0000      -0.798955       -21.7407 
  47   2.0000      -0.736851       -20.0507 
  48   2.0000      -0.721325       -19.6282 
  49   2.0000      -0.715752       -19.4766 
  50   2.0000      -0.705552       -19.1991 
  51   2.0000      -0.686783       -18.6883 
  52   2.0000      -0.674495       -18.3539 
  53   2.0000      -0.654969       -17.8226 
  54   2.0000      -0.650663       -17.7054 
  55   2.0000      -0.643950       -17.5228 
  56   2.0000      -0.621524       -16.9125 
  57   2.0000      -0.598804       -16.2943 
  58   2.0000      -0.585112       -15.9217 
  59   2.0000      -0.581917       -15.8348 
  60   2.0000      -0.577915       -15.7259 
  61   2.0000      -0.550892       -14.9905 
  62   2.0000      -0.542056       -14.7501 
  63   2.0000      -0.540807       -14.7161 
  64   2.0000      -0.532615       -14.4932 
  65   2.0000      -0.523415       -14.2429 
  66   2.0000      -0.514494       -14.0001 
  67   2.0000      -0.498853       -13.5745 
  68   2.0000      -0.472819       -12.8661 
  69   2.0000      -0.469844       -12.7851 
  70   2.0000      -0.464733       -12.6460 
  71   2.0000      -0.461501       -12.5581 
  72   2.0000      -0.453660       -12.3447 
  73   2.0000      -0.447541       -12.1782 
  74   2.0000      -0.442657       -12.0453 
  75   2.0000      -0.435725       -11.8567 
  76   2.0000      -0.428724       -11.6662 
  77   2.0000      -0.427749       -11.6396 
  78   2.0000      -0.421562       -11.4713 
  79   2.0000      -0.417045       -11.3484 
  80   2.0000      -0.412203       -11.2166 
  81   2.0000      -0.411302       -11.1921 
  82   2.0000      -0.409390       -11.1401 
  83   2.0000      -0.408227       -11.1084 
  84   2.0000      -0.399213       -10.8631 
  85   2.0000      -0.389113       -10.5883 
  86   2.0000      -0.388750       -10.5784 
  87   2.0000      -0.386892       -10.5279 
  88   2.0000      -0.376963       -10.2577 
  89   2.0000      -0.371687       -10.1141 
  90   2.0000      -0.369051       -10.0424 
  91   2.0000      -0.363563        -9.8930 
  92   2.0000      -0.359092        -9.7714 
  93   2.0000      -0.358621        -9.7586 
  94   2.0000      -0.355245        -9.6667 
  95   2.0000      -0.346005        -9.4153 
  96   2.0000      -0.344737        -9.3808 
  97   2.0000      -0.343251        -9.3403 
  98   2.0000      -0.339554        -9.2397 
  99   2.0000      -0.338884        -9.2215 
 100   2.0000      -0.338380        -9.2078 
 101   2.0000      -0.334796        -9.1103 
 102   2.0000      -0.328071        -8.9273 
 103   2.0000      -0.325266        -8.8509 
 104   2.0000      -0.320803        -8.7295 
 105   2.0000      -0.319065        -8.6822 
 106   2.0000      -0.313134        -8.5208 
 107   2.0000      -0.300901        -8.1879 
 108   2.0000      -0.278648        -7.5824 
 109   2.0000      -0.275417        -7.4945 
 110   2.0000      -0.258268        -7.0278 
 111   2.0000      -0.245981        -6.6935 
 112   2.0000      -0.225903        -6.1471 
 113   2.0000      -0.216368        -5.8877 
 114   2.0000      -0.214741        -5.8434 
 115   2.0000      -0.209603        -5.7036 
 116   2.0000      -0.188203        -5.1213 
 117   2.0000      -0.175762        -4.7827 
 118   0.0000      -0.107510        -2.9255 
 119   0.0000      -0.089144        -2.4257 
 120   0.0000      -0.052088        -1.4174 
 121   0.0000      -0.039234        -1.0676 
 122   0.0000      -0.032661        -0.8888 
 123   0.0000       0.000999         0.0272 
 124   0.0000       0.019280         0.5246 
 125   0.0000       0.031767         0.8644 
 126   0.0000       0.038511         1.0479 
 127   0.0000       0.038685         1.0527 
 128   0.0000       0.050653         1.3783 
 129   0.0000       0.055735         1.5166 
 130   0.0000       0.069533         1.8921 
 131   0.0000       0.073818         2.0087 
 132   0.0000       0.078426         2.1341 
 133   0.0000       0.090507         2.4628 
 134   0.0000       0.091874         2.5000 
 135   0.0000       0.099053         2.6954 
 136   0.0000       0.102378         2.7859 
 137   0.0000       0.103170         2.8074 
 138   0.0000       0.105158         2.8615 
 139   0.0000       0.109338         2.9752 
 140   0.0000       0.109993         2.9931 
 141   0.0000       0.111103         3.0233 
 142   0.0000       0.112488         3.0610 
 143   0.0000       0.115506         3.1431 
 144   0.0000       0.117693         3.2026 
 145   0.0000       0.122445         3.3319 
 146   0.0000       0.131354         3.5743 
 147   0.0000       0.134858         3.6697 
 148   0.0000       0.137151         3.7321 
 149   0.0000       0.143815         3.9134 
 150   0.0000       0.156161         4.2494 
 151   0.0000       0.158365         4.3093 
 152   0.0000       0.163248         4.4422 
 153   0.0000       0.180294         4.9060 
 154   0.0000       0.182668         4.9706 
 155   0.0000       0.187547         5.1034 
 156   0.0000       0.194736         5.2990 
 157   0.0000       0.200187         5.4474 
 158   0.0000       0.207579         5.6485 
 159   0.0000       0.217199         5.9103 
 160   0.0000       0.220007         5.9867 
 161   0.0000       0.233442         6.3523 
 162   0.0000       0.241879         6.5819 
 163   0.0000       0.243270         6.6197 
 164   0.0000       0.249659         6.7936 
 165   0.0000       0.250795         6.8245 
 166   0.0000       0.256001         6.9661 
 167   0.0000       0.261824         7.1246 
 168   0.0000       0.267728         7.2852 
 169   0.0000       0.275200         7.4886 
 170   0.0000       0.281429         7.6581 
 171   0.0000       0.290576         7.9070 
 172   0.0000       0.303192         8.2503 
 173   0.0000       0.305767         8.3204 
 174   0.0000       0.309342         8.4176 
 175   0.0000       0.322122         8.7654 
 176   0.0000       0.330722         8.9994 
 177   0.0000       0.335620         9.1327 
 178   0.0000       0.361691         9.8421 
 179   0.0000       0.367413         9.9978 
 180   0.0000       0.373743        10.1701 
 181   0.0000       0.374890        10.2013 
 182   0.0000       0.377957        10.2847 
 183   0.0000       0.385749        10.4968 
 184   0.0000       0.391458        10.6521 
 185   0.0000       0.394487        10.7345 
 186   0.0000       0.399011        10.8576 
 187   0.0000       0.401342        10.9211 
 188   0.0000       0.404964        11.0196 
 189   0.0000       0.409994        11.1565 
 190   0.0000       0.411069        11.1857 
 191   0.0000       0.413919        11.2633 
 192   0.0000       0.418335        11.3835 
 193   0.0000       0.425786        11.5862 
 194   0.0000       0.436324        11.8730 
 195   0.0000       0.439911        11.9706 
 196   0.0000       0.445056        12.1106 
 197   0.0000       0.449352        12.2275 
 198   0.0000       0.453940        12.3523 
 199   0.0000       0.456242        12.4150 
 200   0.0000       0.456980        12.4351 
 201   0.0000       0.462307        12.5800 
 202   0.0000       0.473610        12.8876 
 203   0.0000       0.479468        13.0470 
 204   0.0000       0.493508        13.4290 
 205   0.0000       0.497927        13.5493 
 206   0.0000       0.505362        13.7516 
 207   0.0000       0.514675        14.0050 
 208   0.0000       0.518186        14.1006 
 209   0.0000       0.527163        14.3448 
 210   0.0000       0.528701        14.3867 
 211   0.0000       0.534510        14.5447 
 212   0.0000       0.543775        14.7969 
 213   0.0000       0.553013        15.0483 
 214   0.0000       0.559331        15.2202 
 215   0.0000       0.562800        15.3146 
 216   0.0000       0.568295        15.4641 
 217   0.0000       0.575216        15.6524 
 218   0.0000       0.575627        15.6636 
 219   0.0000       0.581684        15.8284 
 220   0.0000       0.588523        16.0145 
 221   0.0000       0.589743        16.0477 
 222   0.0000       0.591374        16.0921 
 223   0.0000       0.594865        16.1871 
 224   0.0000       0.600512        16.3408 
 225   0.0000       0.604361        16.4455 
 226   0.0000       0.608801        16.5663 
 227   0.0000       0.609777        16.5929 
 228   0.0000       0.613354        16.6902 
 229   0.0000       0.614663        16.7258 
 230   0.0000       0.617857        16.8128 
 231   0.0000       0.622522        16.9397 
 232   0.0000       0.627832        17.0842 
 233   0.0000       0.631690        17.1892 
 234   0.0000       0.638255        17.3678 
 235   0.0000       0.643941        17.5225 
 236   0.0000       0.644791        17.5456 
 237   0.0000       0.647736        17.6258 
 238   0.0000       0.652750        17.7622 
 239   0.0000       0.653086        17.7714 
 240   0.0000       0.657549        17.8928 
 241   0.0000       0.660977        17.9861 
 242   0.0000       0.662588        18.0299 
 243   0.0000       0.667204        18.1555 
 244   0.0000       0.674968        18.3668 
 245   0.0000       0.678574        18.4649 
 246   0.0000       0.685224        18.6459 
 247   0.0000       0.687548        18.7091 
 248   0.0000       0.693601        18.8738 
 249   0.0000       0.697754        18.9868 
 250   0.0000       0.704499        19.1704 
 251   0.0000       0.709633        19.3101 
 252   0.0000       0.718375        19.5480 
 253   0.0000       0.723691        19.6926 
 254   0.0000       0.728866        19.8334 
 255   0.0000       0.738549        20.0969 
 256   0.0000       0.743362        20.2279 
 257   0.0000       0.753192        20.4954 
 258   0.0000       0.755911        20.5694 
 259   0.0000       0.766328        20.8528 
 260   0.0000       0.772311        21.0157 
 261   0.0000       0.783491        21.3199 
 262   0.0000       0.790868        21.5206 
 263   0.0000       0.799425        21.7535 
 264   0.0000       0.810909        22.0659 
 265   0.0000       0.823119        22.3982 
 266   0.0000       0.834364        22.7042 
 267   0.0000       0.843715        22.9586 
 268   0.0000       0.852508        23.1979 
 269   0.0000       0.854366        23.2485 
 270   0.0000       0.876959        23.8633 
 271   0.0000       0.904061        24.6007 
 272   0.0000       0.908170        24.7126 
 273   0.0000       0.920064        25.0362 
 274   0.0000       0.930742        25.3268 
 275   0.0000       0.944954        25.7135 
 276   0.0000       0.948065        25.7982 
 277   0.0000       0.958201        26.0740 
 278   0.0000       0.961130        26.1537 
 279   0.0000       0.964923        26.2569 
 280   0.0000       0.967886        26.3375 
 281   0.0000       0.972808        26.4714 
 282   0.0000       0.980821        26.6895 
 283   0.0000       1.001405        27.2496 
 284   0.0000       1.016443        27.6588 
 285   0.0000       1.020274        27.7631 
 286   0.0000       1.033541        28.1241 
 287   0.0000       1.041133        28.3307 
 288   0.0000       1.044492        28.4221 
 289   0.0000       1.052970        28.6528 
 290   0.0000       1.077860        29.3301 
 291   0.0000       1.079812        29.3832 
 292   0.0000       1.089526        29.6475 
 293   0.0000       1.096032        29.8245 
 294   0.0000       1.107729        30.1428 
 295   0.0000       1.111571        30.2474 
 296   0.0000       1.116445        30.3800 
 297   0.0000       1.118315        30.4309 
 298   0.0000       1.129991        30.7486 
 299   0.0000       1.137506        30.9531 
 300   0.0000       1.141801        31.0700 
 301   0.0000       1.145326        31.1659 
 302   0.0000       1.156499        31.4699 
 303   0.0000       1.163896        31.6712 
 304   0.0000       1.168308        31.7913 
 305   0.0000       1.171022        31.8651 
 306   0.0000       1.186961        32.2989 
 307   0.0000       1.189610        32.3709 
 308   0.0000       1.195786        32.5390 
 309   0.0000       1.210820        32.9481 
 310   0.0000       1.213431        33.0191 
 311   0.0000       1.222875        33.2761 
 312   0.0000       1.236218        33.6392 
 313   0.0000       1.244338        33.8602 
 314   0.0000       1.248618        33.9766 
 315   0.0000       1.267448        34.4890 
 316   0.0000       1.276676        34.7401 
 317   0.0000       1.278348        34.7856 
 318   0.0000       1.286836        35.0166 
 319   0.0000       1.290075        35.1047 
 320   0.0000       1.300406        35.3858 
 321   0.0000       1.310701        35.6660 
 322   0.0000       1.313909        35.7533 
 323   0.0000       1.320136        35.9227 
 324   0.0000       1.322150        35.9775 
 325   0.0000       1.328186        36.1418 
 326   0.0000       1.345310        36.6077 
 327   0.0000       1.368581        37.2410 
 328   0.0000       1.385418        37.6991 
 329   0.0000       1.394853        37.9559 
 330   0.0000       1.401304        38.1314 
 331   0.0000       1.402602        38.1667 
 332   0.0000       1.419857        38.6363 
 333   0.0000       1.429695        38.9040 
 334   0.0000       1.435587        39.0643 
 335   0.0000       1.440646        39.2020 
 336   0.0000       1.441201        39.2171 
 337   0.0000       1.449498        39.4429 
 338   0.0000       1.451556        39.4989 
 339   0.0000       1.464349        39.8469 
 340   0.0000       1.471687        40.0466 
 341   0.0000       1.485560        40.4241 
 342   0.0000       1.490834        40.5677 
 343   0.0000       1.497896        40.7598 
 344   0.0000       1.514082        41.2003 
 345   0.0000       1.519605        41.3506 
 346   0.0000       1.530348        41.6429 
 347   0.0000       1.560332        42.4588 
 348   0.0000       1.569041        42.6958 
 349   0.0000       1.581224        43.0273 
 350   0.0000       1.605134        43.6779 
 351   0.0000       1.611253        43.8444 
 352   0.0000       1.626567        44.2611 
 353   0.0000       1.627548        44.2878 
 354   0.0000       1.633453        44.4485 
 355   0.0000       1.637286        44.5528 
 356   0.0000       1.643446        44.7204 
 357   0.0000       1.659999        45.1709 
 358   0.0000       1.664482        45.2929 
 359   0.0000       1.664789        45.3012 
 360   0.0000       1.668646        45.4062 
 361   0.0000       1.669446        45.4279 
 362   0.0000       1.671822        45.4926 
 363   0.0000       1.687678        45.9240 
 364   0.0000       1.691600        46.0308 
 365   0.0000       1.694481        46.1092 
 366   0.0000       1.697870        46.2014 
 367   0.0000       1.704042        46.3693 
 368   0.0000       1.711679        46.5771 
 369   0.0000       1.716517        46.7088 
 370   0.0000       1.719290        46.7843 
 371   0.0000       1.721937        46.8563 
 372   0.0000       1.723453        46.8976 
 373   0.0000       1.732896        47.1545 
 374   0.0000       1.734578        47.2003 
 375   0.0000       1.739439        47.3325 
 376   0.0000       1.742470        47.4150 
 377   0.0000       1.744624        47.4736 
 378   0.0000       1.747056        47.5398 
 379   0.0000       1.761068        47.9211 
 380   0.0000       1.765758        48.0487 
 381   0.0000       1.769154        48.1411 
 382   0.0000       1.776463        48.3400 
 383   0.0000       1.783168        48.5225 
 384   0.0000       1.786519        48.6136 
 385   0.0000       1.796079        48.8738 
 386   0.0000       1.802720        49.0545 
 387   0.0000       1.806634        49.1610 
 388   0.0000       1.818636        49.4876 
 389   0.0000       1.830419        49.8082 
 390   0.0000       1.846950        50.2581 
 391   0.0000       1.848198        50.2920 
 392   0.0000       1.853436        50.4346 
 393   0.0000       1.857587        50.5475 
 394   0.0000       1.867692        50.8225 
 395   0.0000       1.875556        51.0365 
 396   0.0000       1.877600        51.0921 
 397   0.0000       1.884267        51.2735 
 398   0.0000       1.886946        51.3464 
 399   0.0000       1.909205        51.9521 
 400   0.0000       1.918462        52.2040 
 401   0.0000       1.922534        52.3148 
 402   0.0000       1.928129        52.4670 
 403   0.0000       1.934483        52.6400 
 404   0.0000       1.944041        52.9001 
 405   0.0000       1.952949        53.1425 
 406   0.0000       1.970461        53.6190 
 407   0.0000       1.989338        54.1326 
 408   0.0000       2.003373        54.5145 
 409   0.0000       2.009207        54.6733 
 410   0.0000       2.013840        54.7994 
 411   0.0000       2.037705        55.4488 
 412   0.0000       2.045776        55.6684 
 413   0.0000       2.049552        55.7711 
 414   0.0000       2.058196        56.0064 
 415   0.0000       2.071348        56.3643 
 416   0.0000       2.085985        56.7625 
 417   0.0000       2.094955        57.0066 
 418   0.0000       2.105948        57.3058 
 419   0.0000       2.110501        57.4296 
 420   0.0000       2.115379        57.5624 
 421   0.0000       2.127549        57.8936 
 422   0.0000       2.132695        58.0336 
 423   0.0000       2.147852        58.4460 
 424   0.0000       2.159092        58.7519 
 425   0.0000       2.173486        59.1436 
 426   0.0000       2.180405        59.3318 
 427   0.0000       2.190425        59.6045 
 428   0.0000       2.195996        59.7561 
 429   0.0000       2.198038        59.8117 
 430   0.0000       2.208619        60.0996 
 431   0.0000       2.210555        60.1523 
 432   0.0000       2.226825        60.5950 
 433   0.0000       2.236352        60.8542 
 434   0.0000       2.241313        60.9892 
 435   0.0000       2.246709        61.1361 
 436   0.0000       2.251784        61.2742 
 437   0.0000       2.255712        61.3810 
 438   0.0000       2.266807        61.6830 
 439   0.0000       2.291096        62.3439 
 440   0.0000       2.313995        62.9670 
 441   0.0000       2.325972        63.2929 
 442   0.0000       2.333315        63.4927 
 443   0.0000       2.340120        63.6779 
 444   0.0000       2.347801        63.8869 
 445   0.0000       2.351194        63.9792 
 446   0.0000       2.382796        64.8392 
 447   0.0000       2.387450        64.9658 
 448   0.0000       2.428227        66.0754 
 449   0.0000       2.450771        66.6889 
 450   0.0000       2.459881        66.9368 
 451   0.0000       2.467230        67.1367 
 452   0.0000       2.477491        67.4160 
 453   0.0000       2.485806        67.6422 
 454   0.0000       2.504332        68.1463 
 455   0.0000       2.514884        68.4335 
 456   0.0000       2.517956        68.5171 
 457   0.0000       2.530988        68.8717 
 458   0.0000       2.539159        69.0940 
 459   0.0000       2.551051        69.4176 
 460   0.0000       2.576467        70.1092 
 461   0.0000       2.578009        70.1512 
 462   0.0000       2.594956        70.6123 
 463   0.0000       2.599639        70.7398 
 464   0.0000       2.603940        70.8568 
 465   0.0000       2.606863        70.9363 
 466   0.0000       2.611447        71.0611 
 467   0.0000       2.621757        71.3416 
 468   0.0000       2.636159        71.7335 
 469   0.0000       2.644682        71.9654 
 470   0.0000       2.652194        72.1699 
 471   0.0000       2.674802        72.7851 
 472   0.0000       2.701420        73.5094 
 473   0.0000       2.704029        73.5804 
 474   0.0000       2.726189        74.1834 
 475   0.0000       2.733221        74.3747 
 476   0.0000       2.750402        74.8422 
 477   0.0000       2.776140        75.5426 
 478   0.0000       2.777866        75.5896 
 479   0.0000       2.779010        75.6207 
 480   0.0000       2.784363        75.7664 
 481   0.0000       2.791951        75.9728 
 482   0.0000       2.796971        76.1095 
 483   0.0000       2.809217        76.4427 
 484   0.0000       2.822882        76.8145 
 485   0.0000       2.839239        77.2596 
 486   0.0000       2.849178        77.5301 
 487   0.0000       2.854087        77.6637 
 488   0.0000       2.861986        77.8786 
 489   0.0000       2.879636        78.3589 
 490   0.0000       2.884592        78.4937 
 491   0.0000       2.900340        78.9223 
 492   0.0000       2.902568        78.9829 
 493   0.0000       2.908188        79.1358 
 494   0.0000       2.918574        79.4184 
 495   0.0000       2.934118        79.8414 
 496   0.0000       2.938169        79.9516 
 497   0.0000       2.946895        80.1891 
 498   0.0000       2.953240        80.3617 
 499   0.0000       2.954650        80.4001 
 500   0.0000       2.967098        80.7388 
 501   0.0000       2.975282        80.9615 
 502   0.0000       2.975918        80.9788 
 503   0.0000       2.978757        81.0561 
 504   0.0000       2.993350        81.4532 
 505   0.0000       3.001333        81.6704 
 506   0.0000       3.024696        82.3062 
 507   0.0000       3.036521        82.6279 
 508   0.0000       3.040434        82.7344 
 509   0.0000       3.059213        83.2454 
 510   0.0000       3.100202        84.3608 
 511   0.0000       3.132861        85.2495 
 512   0.0000       3.136964        85.3611 
 513   0.0000       3.161370        86.0253 
 514   0.0000       3.201830        87.1262 
 515   0.0000       3.226991        87.8109 
 516   0.0000       3.235321        88.0376 
 517   0.0000       3.284238        89.3686 
 518   0.0000       3.303123        89.8825 
 519   0.0000       3.385361        92.1204 
 520   0.0000       3.410871        92.8145 
 521   0.0000       3.427143        93.2573 
 522   0.0000       3.442030        93.6624 
 523   0.0000       3.451017        93.9069 
 524   0.0000       3.499409        95.2237 
 525   0.0000       3.527147        95.9786 
 526   0.0000       3.530895        96.0805 
 527   0.0000       3.567445        97.0751 
 528   0.0000       3.595203        97.8304 
 529   0.0000       3.651847        99.3718 
 530   0.0000       3.704034       100.7919 
 531   0.0000       3.741685       101.8164 
 532   0.0000       3.806966       103.5928 

                    ********************************
                    * MULLIKEN POPULATION ANALYSIS *
                    ********************************

-----------------------
MULLIKEN ATOMIC CHARGES
-----------------------
   0 H :   -0.016550
   1 C :   -0.097807
   2 C :    0.187921
   3 O :   -0.220755
   4 C :    0.255382
   5 O :   -0.202831
   6 C :   -0.058015
   7 C :    0.009550
   8 H :   -0.012052
   9 C :    0.015290
  10 C :   -0.015055
  11 O :   -0.188546
  12 C :    0.067882
  13 H :    0.050946
  14 H :    0.049647
  15 H :    0.029297
  16 C :   -0.024291
  17 H :   -0.020194
  18 C :    0.132624
  19 N :   -0.012642
  20 H :    0.134424
  21 C :    0.001303
  22 S :   -0.335070
  23 N :   -0.122305
  24 H :    0.140895
  25 C :    0.110757
  26 H :    0.026964
  27 H :    0.032789
  28 C :   -0.028271
  29 H :    0.030102
  30 H :    0.022284
  31 H :    0.029914
  32 C :   -0.054286
  33 H :   -0.005204
  34 C :   -0.083623
  35 H :    0.006179
  36 C :    0.193167
  37 O :   -0.214577
  38 C :    0.472632
  39 F :   -0.159757
  40 F :   -0.133280
  41 F :   -0.157986
  42 C :   -0.016801
  43 H :   -0.018470
  44 C :    0.201748
  45 O :   -0.289104
  46 C :    0.168601
  47 H :    0.036572
  48 H :    0.036857
  49 H :    0.043745
Sum of atomic charges:    0.0000000

--------------------------------
MULLIKEN REDUCED ORBITAL CHARGES
--------------------------------
  0 H s       :     0.991373  s :     0.991373
      pz      :     0.006696  p :     0.025177
      px      :     0.005597
      py      :     0.012883
  1 C s       :     3.338810  s :     3.338810
      pz      :     1.057314  p :     2.730586
      px      :     0.926922
      py      :     0.746351
      dz2     :     0.003121  d :     0.028411
      dxz     :     0.005220
      dyz     :     0.003919
      dx2y2   :     0.008633
      dxy     :     0.007518
  2 C s       :     2.957819  s :     2.957819
      pz      :     1.015172  p :     2.783970
      px      :     0.945107
      py      :     0.823691
      dz2     :     0.007522  d :     0.070289
      dxz     :     0.008499
      dyz     :     0.012617
      dx2y2   :     0.020314
      dxy     :     0.021338
  3 O s       :     3.711773  s :     3.711773
      pz      :     1.660190  p :     4.492790
      px      :     1.375504
      py      :     1.457096
      dz2     :     0.002270  d :     0.016191
      dxz     :     0.003250
      dyz     :     0.002259
      dx2y2   :     0.005473
      dxy     :     0.002940
  4 C s       :     3.011838  s :     3.011838
      pz      :     0.851742  p :     2.601230
      px      :     0.809799
      py      :     0.939689
      dz2     :     0.016027  d :     0.131549
      dxz     :     0.024937
      dyz     :     0.015995
      dx2y2   :     0.047491
      dxy     :     0.027099
  5 O s       :     3.748261  s :     3.748261
      pz      :     1.383565  p :     4.437047
      px      :     1.513746
      py      :     1.539736
      dz2     :     0.002919  d :     0.017523
      dxz     :     0.003138
      dyz     :     0.003360
      dx2y2   :     0.003297
      dxy     :     0.004809
  6 C s       :     3.102089  s :     3.102089
      pz      :     1.006241  p :     2.916941
      px      :     0.971378
      py      :     0.939322
      dz2     :     0.005292  d :     0.038985
      dxz     :     0.006558
      dyz     :     0.005167
      dx2y2   :     0.012652
      dxy     :     0.009315
  7 C s       :     3.348157  s :     3.348157
      pz      :     0.908037  p :     2.610095
      px      :     0.797677
      py      :     0.904380
      dz2     :     0.003489  d :     0.032198
      dxz     :     0.003570
      dyz     :     0.006504
      dx2y2   :     0.009290
      dxy     :     0.009344
  8 H s       :     0.986717  s :     0.986717
      pz      :     0.006109  p :     0.025335
      px      :     0.013877
      py      :     0.005349
  9 C s       :     3.080160  s :     3.080160
      pz      :     0.989301  p :     2.865924
      px      :     0.918175
      py      :     0.958448
      dz2     :     0.003761  d :     0.038626
      dxz     :     0.005881
      dyz     :     0.006781
      dx2y2   :     0.010466
      dxy     :     0.011738
 10 C s       :     3.157299  s :     3.157299
      pz      :     0.827970  p :     2.764610
      px      :     0.907978
      py      :     1.028662
      dz2     :     0.009394  d :     0.093145
      dxz     :     0.016687
      dyz     :     0.010723
      dx2y2   :     0.026428
      dxy     :     0.029913
 11 O s       :     3.745021  s :     3.745021
      pz      :     1.349966  p :     4.426460
      px      :     1.364602
      py      :     1.711893
      dz2     :     0.002459  d :     0.017065
      dxz     :     0.004685
      dyz     :     0.001283
      dx2y2   :     0.004538
      dxy     :     0.004100
 12 C s       :     2.910362  s :     2.910362
      pz      :     1.002227  p :     3.000220
      px      :     1.008436
      py      :     0.989558
      dz2     :     0.004235  d :     0.021535
      dxz     :     0.004369
      dyz     :     0.003239
      dx2y2   :     0.005706
      dxy     :     0.003985
 13 H s       :     0.923058  s :     0.923058
      pz      :     0.008993  p :     0.025995
      px      :     0.011600
      py      :     0.005402
 14 H s       :     0.924450  s :     0.924450
      pz      :     0.012992  p :     0.025903
      px      :     0.006335
      py      :     0.006575
 15 H s       :     0.946557  s :     0.946557
      pz      :     0.006842  p :     0.024147
      px      :     0.010791
      py      :     0.006513
 16 C s       :     3.313018  s :     3.313018
      pz      :     0.968571  p :     2.680056
      px      :     0.936620
      py      :     0.774865
      dz2     :     0.004298  d :     0.031217
      dxz     :     0.005616
      dyz     :     0.003503
      dx2y2   :     0.008866
      dxy     :     0.008935
 17 H s       :     0.995611  s :     0.995611
      pz      :     0.005169  p :     0.024583
      px      :     0.004965
      py      :     0.014449
 18 C s       :     2.946783  s :     2.946783
      pz      :     0.970647  p :     2.862030
      px      :     0.898738
      py      :     0.992645
      dz2     :     0.007573  d :     0.058563
      dxz     :     0.011885
      dyz     :     0.008696
      dx2y2   :     0.014991
      dxy     :     0.015418
 19 N s       :     3.309492  s :     3.309492
      pz      :     1.538314  p :     3.681966
      px      :     1.057408
      py      :     1.086245
      dz2     :     0.002503  d :     0.021185
      dxz     :     0.004750
      dyz     :     0.001642
      dx2y2   :     0.007171
      dxy     :     0.005118
 20 H s       :     0.819744  s :     0.819744
      pz      :     0.012132  p :     0.045832
      px      :     0.007492
      py      :     0.026208
 21 C s       :     3.063077  s :     3.063077
      pz      :     0.961818  p :     2.846250
      px      :     0.921048
      py      :     0.963385
      dz2     :     0.013140  d :     0.089369
      dxz     :     0.014526
      dyz     :     0.016913
      dx2y2   :     0.025342
      dxy     :     0.019449
 22 S s       :     5.942422  s :     5.942422
      pz      :     3.396330  p :    10.342681
      px      :     3.433385
      py      :     3.512966
      dz2     :     0.008100  d :     0.049967
      dxz     :     0.013387
      dyz     :     0.009025
      dx2y2   :     0.004852
      dxy     :     0.014603
 23 N s       :     3.356593  s :     3.356593
      pz      :     1.365919  p :     3.743722
      px      :     1.213108
      py      :     1.164695
      dz2     :     0.002301  d :     0.021990
      dxz     :     0.004278
      dyz     :     0.004004
      dx2y2   :     0.006371
      dxy     :     0.005036
 24 H s       :     0.813179  s :     0.813179
      pz      :     0.017734  p :     0.045925
      px      :     0.016540
      py      :     0.011651
 25 C s       :     2.987738  s :     2.987738
      pz      :     1.033347  p :     2.854715
      px      :     0.859367
      py      :     0.962002
      dz2     :     0.008049  d :     0.046790
      dxz     :     0.009942
      dyz     :     0.008068
      dx2y2   :     0.009779
[...]
      dx2y2   :     0.016756
      dxy     :     0.014461
 24 H s       :     0.778153  s :     0.778153
      pz      :     0.053333  p :     0.129066
      px      :     0.045517
      py      :     0.030216
 25 C s       :     2.833211  s :     2.833211
      pz      :     1.061709  p :     3.018991
      px      :     0.929562
      py      :     1.027720
      dz2     :     0.019714  d :     0.114055
      dxz     :     0.025340
      dyz     :     0.018970
      dx2y2   :     0.022920
      dxy     :     0.027111
 26 H s       :     0.902965  s :     0.902965
      pz      :     0.018237  p :     0.067254
      px      :     0.011846
      py      :     0.037170
 27 H s       :     0.913354  s :     0.913354
      pz      :     0.029086  p :     0.075271
      px      :     0.021152
      py      :     0.025034
 28 C s       :     2.840441  s :     2.840441
      pz      :     1.025831  p :     3.148529
      px      :     1.053413
      py      :     1.069284
      dz2     :     0.014181  d :     0.068829
      dxz     :     0.017036
      dyz     :     0.014001
      dx2y2   :     0.009551
      dxy     :     0.014060
 29 H s       :     0.905564  s :     0.905564
      pz      :     0.017344  p :     0.068109
      px      :     0.014637
      py      :     0.036128
 30 H s       :     0.904372  s :     0.904372
      pz      :     0.026133  p :     0.068199
      px      :     0.022326
      py      :     0.019740
 31 H s       :     0.898563  s :     0.898563
      pz      :     0.013916  p :     0.068178
      px      :     0.033561
      py      :     0.020702
 32 C s       :     2.858750  s :     2.858750
      pz      :     0.981625  p :     3.061820
      px      :     1.041254
      py      :     1.038941
      dz2     :     0.007386  d :     0.087203
      dxz     :     0.011932
      dyz     :     0.014039
      dx2y2   :     0.026186
      dxy     :     0.027660
 33 H s       :     0.888041  s :     0.888041
      pz      :     0.022875  p :     0.078110
      px      :     0.024602
      py      :     0.030633
 34 C s       :     2.857512  s :     2.857512
      pz      :     1.060711  p :     3.159288
      px      :     1.058602
      py      :     1.039975
      dz2     :     0.007519  d :     0.085385
      dxz     :     0.007151
      dyz     :     0.015700
      dx2y2   :     0.025943
      dxy     :     0.029072
 35 H s       :     0.888065  s :     0.888065
      pz      :     0.021741  p :     0.085975
      px      :     0.048992
      py      :     0.015242
 36 C s       :     2.839794  s :     2.839794
      pz      :     0.997433  p :     2.935406
      px      :     1.054107
      py      :     0.883866
      dz2     :     0.015002  d :     0.161079
      dxz     :     0.019602
      dyz     :     0.029084
      dx2y2   :     0.050907
      dxy     :     0.046485
 37 O s       :     3.420905  s :     3.420905
      pz      :     1.703589  p :     4.579055
      px      :     1.387350
      py      :     1.488116
      dz2     :     0.004569  d :     0.033181
      dxz     :     0.004811
      dyz     :     0.003536
      dx2y2   :     0.014746
      dxy     :     0.005519
 38 C s       :     2.813373  s :     2.813373
      pz      :     0.856804  p :     2.619310
      px      :     0.918825
      py      :     0.843681
      dz2     :     0.088496  d :     0.471572
      dxz     :     0.109710
      dyz     :     0.084510
      dx2y2   :     0.118046
      dxy     :     0.070811
 39 F s       :     3.742108  s :     3.742108
      pz      :     1.699350  p :     5.301918
      px      :     1.740640
      py      :     1.861928
      dz2     :     0.002307  d :     0.012962
      dxz     :     0.005586
      dyz     :     0.001999
      dx2y2   :     0.001556
      dxy     :     0.001514
 40 F s       :     3.731232  s :     3.731232
      pz      :     1.881543  p :     5.294099
      px      :     1.881417
      py      :     1.531139
      dz2     :     0.002073  d :     0.013200
      dxz     :     0.000229
      dyz     :     0.002584
      dx2y2   :     0.005844
      dxy     :     0.002471
 41 F s       :     3.742970  s :     3.742970
      pz      :     1.638787  p :     5.303180
      px      :     1.855904
      py      :     1.808489
      dz2     :     0.003578  d :     0.012861
      dxz     :     0.002973
      dyz     :     0.004397
      dx2y2   :     0.000824
      dxy     :     0.001089
 42 C s       :     2.860442  s :     2.860442
      pz      :     1.041772  p :     3.119111
      px      :     1.038527
      py      :     1.038811
      dz2     :     0.008780  d :     0.082552
      dxz     :     0.012769
      dyz     :     0.008943
      dx2y2   :     0.027104
      dxy     :     0.024956
 43 H s       :     0.882100  s :     0.882100
      pz      :     0.016745  p :     0.075052
      px      :     0.021389
      py      :     0.036917
 44 C s       :     2.831749  s :     2.831749
      pz      :     0.955151  p :     2.940491
      px      :     0.895454
      py      :     1.089885
      dz2     :     0.017615  d :     0.179715
      dxz     :     0.034577
      dyz     :     0.020613
      dx2y2   :     0.055250
      dxy     :     0.051659
 45 O s       :     3.435896  s :     3.435896
      pz      :     1.674353  p :     4.604042
      px      :     1.377195
      py      :     1.552494
      dz2     :     0.003942  d :     0.032127
      dxz     :     0.005990
      dyz     :     0.003711
      dx2y2   :     0.011052
      dxy     :     0.007432
 46 C s       :     2.848093  s :     2.848093
      pz      :     1.053128  p :     2.952247
      px      :     1.013154
      py      :     0.885965
      dz2     :     0.014324  d :     0.115625
      dxz     :     0.013897
      dyz     :     0.036852
      dx2y2   :     0.025374
      dxy     :     0.025178
 47 H s       :     0.907734  s :     0.907734
      pz      :     0.033367  p :     0.067790
      px      :     0.018463
      py      :     0.015959
 48 H s       :     0.907832  s :     0.907832
      pz      :     0.028787  p :     0.067849
      px      :     0.012578
      py      :     0.026484
 49 H s       :     0.901059  s :     0.901059
      pz      :     0.015159  p :     0.065581
      px      :     0.038623
      py      :     0.011800


                      *****************************
                      * MAYER POPULATION ANALYSIS *
                      *****************************

  NA   - Mulliken gross atomic population
  ZA   - Total nuclear charge
  QA   - Mulliken gross atomic charge
  VA   - Mayer's total valence
  BVA  - Mayer's bonded valence
  FA   - Mayer's free valence

  ATOM       NA         ZA         QA         VA         BVA        FA
  0 H      1.0016     1.0000    -0.0016     1.0207     1.0207     0.0000
  1 C      6.0982     6.0000    -0.0982     3.7303     3.7303    -0.0000
  2 C      5.8099     6.0000     0.1901     3.8830     3.8830     0.0000
  3 O      8.2185     8.0000    -0.2185     2.3102     2.3102     0.0000
  4 C      5.7373     6.0000     0.2627     4.1576     4.1576     0.0000
  5 O      8.2191     8.0000    -0.2191     2.3092     2.3092    -0.0000
  6 C      6.0605     6.0000    -0.0605     3.7005     3.7005    -0.0000
  7 C      5.9953     6.0000     0.0047     3.7964     3.7964    -0.0000
  8 H      1.0144     1.0000    -0.0144     1.0437     1.0437     0.0000
  9 C      5.9870     6.0000     0.0130     3.6299     3.6299    -0.0000
 10 C      6.0113     6.0000    -0.0113     4.2480     4.2480    -0.0000
 11 O      8.2158     8.0000    -0.2158     2.2969     2.2969    -0.0000
 12 C      5.9327     6.0000     0.0673     3.8985     3.8985    -0.0000
 13 H      0.9367     1.0000     0.0633     0.9969     0.9969     0.0000
 14 H      0.9385     1.0000     0.0615     0.9967     0.9967     0.0000
 15 H      0.9756     1.0000     0.0244     1.0188     1.0188    -0.0000
 16 C      6.0128     6.0000    -0.0128     3.7833     3.7833    -0.0000
 17 H      0.9967     1.0000     0.0033     1.0189     1.0189     0.0000
 18 C      5.8723     6.0000     0.1277     3.8783     3.8783    -0.0000
 19 N      7.0114     7.0000    -0.0114     3.2927     3.2927     0.0000
 20 H      0.8512     1.0000     0.1488     1.0202     1.0202     0.0000
 21 C      5.9791     6.0000     0.0209     4.0917     4.0917     0.0000
 22 S     16.4147    16.0000    -0.4147     1.8111     1.8111    -0.0000
 23 N      7.1162     7.0000    -0.1162     3.4249     3.4249     0.0000
 24 H      0.8371     1.0000     0.1629     0.9966     0.9966     0.0000
 25 C      5.8874     6.0000     0.1126     4.0056     4.0056     0.0000
 26 H      0.9662     1.0000     0.0338     0.9791     0.9791     0.0000
 27 H      0.9814     1.0000     0.0186     1.0545     1.0545     0.0000
 28 C      6.0292     6.0000    -0.0292     4.0319     4.0319    -0.0000
 29 H      0.9744     1.0000     0.0256     0.9967     0.9967    -0.0000
 30 H      0.9667     1.0000     0.0333     0.9917     0.9917     0.0000
 31 H      0.9683     1.0000     0.0317     0.9907     0.9907    -0.0000
 32 C      6.0435     6.0000    -0.0435     3.8206     3.8206    -0.0000
 33 H      1.0037     1.0000    -0.0037     1.0433     1.0433     0.0000
 34 C      6.0924     6.0000    -0.0924     3.6964     3.6964     0.0000
 35 H      1.0020     1.0000    -0.0020     1.0985     1.0985     0.0000
 36 C      5.8082     6.0000     0.1918     3.8018     3.8018     0.0000
 37 O      8.2166     8.0000    -0.2166     2.2401     2.2401     0.0000
 38 C      5.5256     6.0000     0.4744     4.6874     4.6874     0.0000
 39 F      9.1615     9.0000    -0.1615     1.1953     1.1953    -0.0000
 40 F      9.1362     9.0000    -0.1362     1.2168     1.2168    -0.0000
 41 F      9.1610     9.0000    -0.1610     1.1976     1.1976     0.0000
 42 C      6.0258     6.0000    -0.0258     3.7687     3.7687    -0.0000
 43 H      1.0126     1.0000    -0.0126     1.0137     1.0137    -0.0000
 44 C      5.7987     6.0000     0.2013     3.8586     3.8586     0.0000
 45 O      8.2955     8.0000    -0.2955     2.2669     2.2669     0.0000
 46 C      5.8371     6.0000     0.1629     3.9068     3.9068     0.0000
 47 H      0.9555     1.0000     0.0445     0.9902     0.9902     0.0000
 48 H      0.9551     1.0000     0.0449     0.9896     0.9896     0.0000
 49 H      0.9519     1.0000     0.0481     0.9913     0.9913     0.0000

  Mayer bond orders larger than 0.100000
B(  0-H ,  1-C ) :   1.0061 B(  1-C ,  2-C ) :   1.3183 B(  1-C , 44-C ) :   1.2642 
B(  2-C ,  3-O ) :   1.0046 B(  2-C , 34-C ) :   1.3230 B(  3-O ,  4-C ) :   1.1638 
B(  4-C ,  5-O ) :   2.0169 B(  4-C ,  6-C ) :   0.9324 B(  6-C ,  7-C ) :   1.3274 
B(  6-C , 32-C ) :   1.3431 B(  7-C ,  8-H ) :   0.9961 B(  7-C ,  9-C ) :   1.3085 
B(  9-C , 10-C ) :   0.9126 B(  9-C , 16-C ) :   1.3552 B( 10-C , 11-O ) :   2.1113 
B( 10-C , 12-C ) :   1.1031 B( 12-C , 13-H ) :   0.9230 B( 12-C , 14-H ) :   0.9262 
B( 12-C , 15-H ) :   0.9371 B( 16-C , 17-H ) :   0.9861 B( 16-C , 18-C ) :   1.2949 
B( 18-C , 19-N ) :   1.0963 B( 18-C , 32-C ) :   1.2990 B( 19-N , 20-H ) :   0.8876 
B( 19-N , 21-C ) :   1.1892 B( 21-C , 22-S ) :   1.4344 B( 21-C , 23-N ) :   1.3408 
B( 23-N , 24-H ) :   0.9009 B( 23-N , 25-C ) :   0.9791 B( 25-C , 26-H ) :   0.9381 
B( 25-C , 27-H ) :   0.9137 B( 25-C , 28-C ) :   1.1173 B( 28-C , 29-H ) :   0.9659 
B( 28-C , 30-H ) :   0.9690 B( 28-C , 31-H ) :   0.9606 B( 32-C , 33-H ) :   0.9858 
B( 34-C , 35-H ) :   0.9780 B( 34-C , 36-C ) :   1.2557 B( 36-C , 37-O ) :   0.9624 
B( 36-C , 42-C ) :   1.3855 B( 37-O , 38-C ) :   1.1969 B( 38-C , 39-F ) :   1.1214 
B( 38-C , 40-F ) :   1.1677 B( 38-C , 41-F ) :   1.1173 B( 42-C , 43-H ) :   1.0127 
B( 42-C , 44-C ) :   1.2826 B( 44-C , 45-O ) :   1.1690 B( 45-O , 46-C ) :   0.9427 
B( 46-C , 47-H ) :   0.9656 B( 46-C , 48-H ) :   0.9653 B( 46-C , 49-H ) :   0.9729 



------------------
HIRSHFELD ANALYSIS
------------------

Total integrated alpha density =    117.999958899
Total integrated beta density  =    117.999958899

  ATOM     CHARGE      SPIN    
   0 H    0.047921    0.000000
   1 C   -0.072901    0.000000
   2 C    0.083614    0.000000
   3 O   -0.073715    0.000000
   4 C    0.217471    0.000000
   5 O   -0.256185    0.000000
   6 C   -0.013307    0.000000
   7 C   -0.028407    0.000000
   8 H    0.032433    0.000000
   9 C   -0.011084    0.000000
  10 C    0.166885    0.000000
  11 O   -0.269378    0.000000
  12 C   -0.070532    0.000000
  13 H    0.052623    0.000000
  14 H    0.051323    0.000000
  15 H    0.038840    0.000000
  16 C   -0.017101    0.000000
  17 H    0.057530    0.000000
  18 C    0.062799    0.000000
  19 N   -0.070398    0.000000
  20 H    0.140103    0.000000
  21 C    0.121033    0.000000
  22 S   -0.398445    0.000000
  23 N   -0.062060    0.000000
  24 H    0.136514    0.000000
  25 C    0.025852    0.000000
  26 H    0.038751    0.000000
  27 H    0.020392    0.000000
  28 C   -0.066444    0.000000
  29 H    0.028051    0.000000
  30 H    0.032480    0.000000
  31 H    0.036352    0.000000
  32 C   -0.028329    0.000000
  33 H    0.041585    0.000000
  34 C   -0.090620    0.000000
  35 H    0.019791    0.000000
  36 C    0.075319    0.000000
  37 O   -0.124599    0.000000
  38 C    0.336312    0.000000
  39 F   -0.109603    0.000000
  40 F   -0.105999    0.000000
  41 F   -0.109704    0.000000
  42 C   -0.066717    0.000000
  43 H    0.050897    0.000000
  44 C    0.085075    0.000000
  45 O   -0.124033    0.000000
  46 C    0.032113    0.000000
  47 H    0.043284    0.000000
  48 H    0.043339    0.000000
  49 H    0.050959    0.000000

  TOTAL   0.000082    0.000000

-------
TIMINGS
-------

Total SCF time: 0 days 0 hours 4 min 37 sec 

Total time                  ....     277.124 sec
Sum of individual times     ....     255.295 sec  ( 92.1%)

Fock matrix formation       ....     239.148 sec  ( 86.3%)
  Split-RI-J                ....      50.389 sec  ( 21.1% of F)
  XC integration            ....      76.305 sec  ( 31.9% of F)
    Basis function eval.    ....      20.077 sec  ( 26.3% of XC)
    Density eval.           ....      12.129 sec  ( 15.9% of XC)
    XC-Functional eval.     ....       4.619 sec  (  6.1% of XC)
    XC-Potential eval.      ....       8.264 sec  ( 10.8% of XC)
Diagonalization             ....       0.239 sec  (  0.1%)
Density matrix formation    ....       0.115 sec  (  0.0%)
Population analysis         ....       6.180 sec  (  2.2%)
Initial guess               ....       0.134 sec  (  0.0%)
Orbital Transformation      ....       0.000 sec  (  0.0%)
Orbital Orthonormalization  ....       0.078 sec  (  0.0%)
DIIS solution               ....       0.041 sec  (  0.0%)
SOSCF solution              ....       2.560 sec  (  0.9%)
Grid generation             ....       6.879 sec  (  2.5%)

Maximum memory used throughout the entire SCF-calculation: 239.8 MB


-------------------------------------------------------------------------------
                          DFT DISPERSION CORRECTION                            
                                                                               
                              DFTD3 V3.1  Rev 1                                
                          USING Becke-Johnson damping                          
-------------------------------------------------------------------------------
The revPBE functional is recognized
Active option DFTDOPT                   ...         4   

molecular C6(AA) [au] = 29907.851739 


            DFT-D V3
 parameters
 s6 scaling factor         :     1.0000 
 a1 scaling factor         :     0.5238 
 s8 scaling factor         :     2.3550 
 a2 scaling factor         :     3.5016 
 ad hoc parameters k1-k3   :    16.0000     1.3333    -4.0000 

 Edisp/kcal,au: -95.790564070791  -0.152651964332 
 E6   /kcal   : -39.077611968 
 E8   /kcal   : -56.712952102 
 % E8         :  59.205155176 

-------------------------   ----------------
Dispersion correction           -0.152651964
-------------------------   ----------------


-------------------------   --------------------
FINAL SINGLE POINT ENERGY     -1955.326858625260
-------------------------   --------------------


                            ***************************************
                            *     ORCA property calculations      *
                            ***************************************

                                    ---------------------
                                    Active property flags
                                    ---------------------
   (+) Dipole Moment


------------------------------------------------------------------------------
                       ORCA ELECTRIC PROPERTIES CALCULATION
------------------------------------------------------------------------------

Dipole Moment Calculation                       ... on
Quadrupole Moment Calculation                   ... off
Polarizability Calculation                      ... off
GBWName                                         ... /home/sk77/PycharmProjects/omg_database_publication/run_calculation/calculation_results/pareto_greedy/0/reaction_10005258/opt_n_1/conformer_7/property_cosmo.gbw
Electron density                                ... /home/sk77/PycharmProjects/omg_database_publication/run_calculation/calculation_results/pareto_greedy/0/reaction_10005258/opt_n_1/conformer_7/property_cosmo.scfp
The origin for moment calculation is the CENTER OF MASS  = ( 0.042196, -1.088797  0.546815)

-------------
DIPOLE MOMENT
-------------
                                X             Y             Z
Electronic contribution:      8.92945     -39.87323      11.13479
Nuclear contribution   :     -7.29233      41.09136     -13.05653
                        -----------------------------------------
Total Dipole Moment    :      1.63712       1.21814      -1.92173
                        -----------------------------------------
Magnitude (a.u.)       :      2.80305
Magnitude (Debye)      :      7.12479



--------------------
Rotational spectrum 
--------------------
 
Rotational constants in cm-1:     0.004965     0.002184     0.001568 
Rotational constants in MHz :   148.855187    65.468803    47.005859 

 Dipole components along the rotational axes: 
x,y,z [a.u.] :     0.104909     2.521244    -1.220412 
x,y,z [Debye]:     0.266658     6.408494    -3.102041 

 
------------------------------------------------------------------------------
                      ORCA CHELPG CHARGES GENERATION
------------------------------------------------------------------------------

GBW file                           ... /home/sk77/PycharmProjects/omg_database_publication/run_calculation/calculation_results/pareto_greedy/0/reaction_10005258/opt_n_1/conformer_7/property_cosmo.gbw
Density                            ... /home/sk77/PycharmProjects/omg_database_publication/run_calculation/calculation_results/pareto_greedy/0/reaction_10005258/opt_n_1/conformer_7/property_cosmo.scfp

Reading the GBW file               ... done
Reading the density                ... done

Grid spacing                       ...     0.300000
Point Cut-Off                      ...     2.800000
Van-der-Waals Radii                ...        COSMO
Total charge                       ...            0


Number of points X direction       ...           66
Number of points Y direction       ...           62
Number of points Z direction       ...           33
Maximum number of possible points  ...       135036
Final number of points             ...        26444



Timings for individual modules:

Sum of individual times         ...      305.743 sec (=   5.096 min)
GTO integral calculation        ...        6.351 sec (=   0.106 min)   2.1 %
SCF iterations                  ...      277.538 sec (=   4.626 min)  90.8 %
CHELPG charge generation        ...       21.855 sec (=   0.364 min)   7.1 %



                             ****ORCA TERMINATED NORMALLY****
TOTAL RUN TIME: 0 days 0 hours 36 minutes 7 seconds 304 msec
